192
Lattice="13.066375 0.0 0.0 -1e-06 13.066375 0.0 -1e-06 -1e-06 13.066375" Properties=species:S:1:pos:R:3:force:R:3 TotEnergy=-30029.60151855976 cutoff=-1.0 nneightol=1.2 CONVERTED_ID=1298 pbc="T T T"
O       12.64543029      -2.82263124     -15.46091764      -0.73374148      -0.01953370      -1.50247567
H       11.89812624      -2.74155071     -16.09106187       0.10830927       0.13022536       0.72198639
H       13.26149840      -3.37739946     -16.00020214       0.38951804      -0.03940216       0.77080136
O       25.27027560      24.43639815       0.35318398      -0.62635163      -5.84020985      -6.84844232
H       25.31266269      25.21264820       0.74189057       0.70286252       6.34707716       2.48271396
H       25.35134554      24.55181170      -0.71252653       0.05939300      -0.39063699       4.16623130
O        5.36733861       1.52952323       8.14218515      -1.67676562      -1.59301964       0.15951948
H        5.85688045       1.94819236       8.86519997      -0.25293075      -0.47125291       0.53674868
H        4.66960788       0.81533508       8.43852439       2.45793881       1.95884651      -0.54527960
O       -2.93321340      -5.70437158      -2.06760649      -0.92283584       1.70278005       1.24832210
H       -2.11669297      -6.19126753      -2.36016211      -0.28720870       1.53401796       0.26790743
H       -2.98088698      -4.75015394      -1.60816954       1.40556050      -3.11588416      -1.33525625
O        3.38407768      16.26336197      10.69520060       0.59190399       0.68365124      -0.94755957
H        3.89453789      17.07395562      10.80886787      -0.21160438       0.18324665       1.52078192
H        3.42589326      16.37501836       9.74289329      -0.65737971      -1.10585212      -0.78042243
O       -1.96962404       4.40010321       2.94610416      -2.95582783       0.86846729       0.19323693
H       -2.32842735       4.61702883       3.87909650       0.65334307      -0.73944418      -2.51328438
H       -2.77761414       4.31724465       2.25013558       1.58515207      -0.06196051       2.29071939
O       23.88134417      13.33156147       7.30634975       1.80030200      -0.02852639       3.70227056
H       24.78475550      13.75828997       7.41726529      -0.90032326      -0.82670743      -0.69127199
H       23.53219305      13.41421895       6.46532841      -0.50845317       0.23892081      -2.90959940
O       -0.64325723     -14.98471107       3.92837877      -0.73368491      -1.30749862      -3.03262155
H       -0.55697489     -15.69682484       3.17299418       0.54271878       1.30634162       2.15628668
H       -1.35569910     -14.46638199       3.50380931       0.46261863       0.07080613       0.98098392
O       18.42494504     -18.37583739       9.85613722      -4.66551386       1.33546194      -1.10753877
H       19.30015122     -18.54400991       9.94424522       4.08941188      -1.32945584       1.05250173
H       17.81485663     -18.88326542      10.41489543       0.71382571       0.13888072      -0.04857277
O        4.83259975     -14.17898585     -13.56820951       0.66649170      -3.25168984       1.34222908
H        5.77131249     -14.48098728     -13.72235884      -0.82920654       0.81601164      -0.22270589
H        4.58696627     -14.93793181     -12.92383042       0.43611107       2.02698589      -0.84586729
O       -4.81121570       2.19039148       4.33023066       2.71470976       1.31667745      -2.69446489
H       -4.90639351       2.05848877       3.34761737      -0.33151241       0.43307716       1.13880852
H       -5.49905082       1.76712909       4.75293741      -2.27451116      -1.54393728       1.28801994
O       -5.85185327      15.23765778      27.76232983      -2.93325355      -1.79628593      -0.68071504
H       -6.93275064      14.99428918      28.00818557       3.68348094       1.05183324      -1.38370098
H       -5.56249917      14.84871253      26.85283296      -1.41648769       0.17086113       2.21747894
O        7.43372270     -15.57654286      -6.91692824       1.49841847       0.54636975      -4.63330822
H        7.83621489     -16.40586939      -7.23538708       0.15926545       0.61871031      -1.06741927
H        7.21215620     -15.85541925      -6.10686376      -1.70813308      -0.82727822       5.68563511
O       15.41884806       7.48679918      20.53091158       2.60923282      -0.92059384      -0.09585999
H       14.76631964       6.98550960      20.06814611      -1.26490058      -0.82979275      -0.62807427
H       16.21483642       6.83829250      20.46291231      -1.18530950       1.63185359       0.65338935
O       -0.25643134       0.99778480       0.95212739       1.50308245       0.83864763      -0.20752661
H        0.08169544       1.33199725       1.79520723      -1.00521914       0.00704277       1.22145921
H        0.45881305       1.49934954       0.51064278      -0.69217188      -0.71535809      -1.04516380
O      -16.15043555      12.55615810      17.73955471      -4.01243304       0.04849975       0.53673839
H      -16.71914230      13.30330340      17.32319808       1.39123945      -1.74681276       1.16891100
H      -16.87297411      11.96564925      18.22290518       2.43173927       1.81856711      -1.71378951
O      -17.86354093       6.26270645      13.02225739      -2.72138435      -1.53550406      -2.27382724
H      -18.60412444       5.90937483      12.25008200       1.60521182       0.96731593       2.60244510
H      -17.16492118       6.29779090      12.38174129       1.42704978       0.61880801      -0.40643745
O       -9.97795381      34.26676443     -11.48647929       0.91789418       1.16682327       3.10056038
H       -9.67293607      33.90147341     -10.61100851      -0.44849556       1.35297115      -0.36197433
H      -10.06812561      33.42055716     -11.81774422      -1.02093372      -2.49247387      -2.41358728
O       36.51899556      10.89078450      21.81437799      -1.04788917       1.30639818      -0.34839427
H       36.75871284      11.81425165      21.45014531      -1.06414368      -1.62590405       0.46933641
H       35.51689268      10.80193565      21.88041930       2.26698811       0.43385055      -0.26845713
O       30.55273418     -11.00170004       2.39843750      -1.58540918      -3.31284610      -0.18537707
H       30.61803465     -11.65290552       3.16384471       0.06375462       1.44162794      -0.38412387
H       29.84707637     -11.55506065       1.84262680       2.00845852       1.99623550       0.48742977
O       16.38184474       9.80401326      -6.87454114      -0.11691424      -0.15087749       0.59818262
H       17.00061166       9.64822349      -7.57427217       0.57112433       0.19100830      -0.85189396
H       16.22467911       8.90726956      -6.52904134      -0.68858262       0.27733875       0.45327215
O       -9.31997487       3.54060301      33.44907981       0.05727801      -1.90738331       0.66006394
H       -9.03792341       4.44114620      33.49210192       0.72136933       0.94263334      -0.01169852
H       -8.60569147       2.89969003      33.75277461      -0.80878684       0.96260567      -0.62330744
O        3.17334344       1.13243394       0.08931823       0.23581337       0.81460782      -0.79463549
H        3.07582666       1.93705847      -0.51232715       0.68657201      -2.12944436       0.94231452
H        3.85647417       0.47270024      -0.21488616      -0.92381286       1.28824105      -0.07560072
O       23.50478167       1.94969522      12.99003049      -1.50399776       0.10614286      -1.64507934
H       23.17785599       2.61787670      13.56529904      -0.80482734       1.28613275       0.64914189
H       24.29891791       1.68835577      13.39368687       2.27399179      -1.06708503       0.81397533
O        0.10551053      32.49132198      15.57887124       0.74590279       3.98903600       0.74722434
H       -0.72191943      32.10576346      15.49414997      -2.37095324      -2.32326956      -0.05883096
H       -0.22901096      33.45453033      15.64427755       1.59638779      -1.80097048      -0.41114874
O        6.05241143      20.26791051       5.02742163      -4.17216541      -6.07212337       2.27532877
H        5.26115920      19.97469341       4.49127516       0.91506597       0.54778385       0.95337027
H        6.43347194      20.98118847       4.71206376       2.83375185       5.23569203      -2.73439413
O       -9.59615245      10.90766525      10.36414734       2.18889341       1.65467470       3.44618867
H       -9.97731880      10.04939273      10.40134850      -0.87440140      -1.36456168      -0.31378208
H       -9.12888898      11.05313607      11.35254453      -1.37832737       0.09972641      -3.72651606
O       17.21641012      17.99869279      28.20271111      -0.50867274      -2.94876244      -0.53856388
H       17.22360693      16.93732206      28.21525261       0.25116594       2.93889969       0.51791278
H       16.44344097      18.16321399      27.63500980       0.00440893      -0.14363417       0.00466501
O        6.71023162      18.44732923      10.88819153      -1.78416061      -2.11183745       3.50220272
H        7.21765965      18.88315958      10.27365804       2.11857888       1.69522100      -2.79111267
H        6.94809677      17.49592152      10.87961886      -0.01247139       0.27549835      -0.63313420
O        1.05389346     -13.58985286      10.43368123       2.32941450      -1.15064074      -1.18629680
H        0.52050929     -14.43383760      10.50644309       0.87837632       0.68742562      -0.04513263
H        2.04940808     -13.87724901      10.19994365      -3.30015514       0.34570696       1.08869258
O       -0.00847742       9.26965012       1.83980628       2.04784268      -2.70938758       2.62456174
H        0.94434848       9.16873602       1.66105022      -0.27327743      -0.58057056       0.74718835
H       -0.16747771       9.87793932       1.19759153      -1.86098518       3.13109995      -3.26150117
O        0.42741008       0.65217916       7.74403222       0.70375727      -1.00983170       0.70315563
H        1.03889658       0.21235141       7.08086734      -1.07010864       0.21262768       1.18297494
H        0.49172575       0.19270888       8.65278824       0.43231715       0.78719986      -1.83107296
O      -18.85241439      28.84873065     -15.91055952       2.05300032       0.19047711      -2.77351604
H      -17.97228685      28.59213262     -16.52736848      -2.72924164       0.54448770       2.41405522
H      -18.95481018      28.34384267     -15.10912063       0.79104623      -0.97355343       0.12288794
O        4.60828682      26.42589279      -8.29379442       4.12158152      -0.33003197      -0.78049956
H        5.44475724      26.54718020      -7.69905215      -1.29253994      -0.19155748      -1.56524144
H        3.94140712      26.49876049      -7.68360018      -3.08776143       0.27824121       1.84387191
O      -18.19099579      21.58392131       1.45866640       0.92447106       2.82905701       1.69339038
H      -17.93074644      20.76591918       1.05815333      -1.41887881      -0.97557946      -0.93580449
H      -19.07234043      22.02440842       1.52598303       0.18947900      -1.48820604      -0.83101660
O       11.43895917      20.28431500       6.91497028      -3.15112370       0.97737923      -0.08727045
H       11.58136076      21.30393365       6.79146032      -0.50491739      -2.10109538      -0.04757313
H       10.39494545      20.07539584       6.90041791       3.61341323       1.10397007      -0.13384238
O       -9.44247939      -6.80389598       4.30549162      -1.17215059      -1.09573226      -2.09742898
H       -9.28129201      -7.34836642       3.38757025      -0.58880324       0.70054339       2.41475970
H      -10.39155872      -6.93391483       4.59196170       1.78342527       0.13733137      -0.60355109
O      -25.43453220       2.10612530      11.25163044      -7.84315078       0.50292119       4.56416097
H      -25.34340789       1.21531897      11.27904182       0.72315881      -4.32077518      -0.38290877
H      -24.80063082       2.49930397      10.86040973       7.27977062       3.90821080      -4.19602011
O      -12.44503088      -7.40535880      19.41635854       0.66681051       0.88299403       0.62963236
H      -12.23388918      -8.29755158      19.07535674      -0.69596682       0.48339777      -0.49522279
H      -13.07951436      -6.77124575      19.03662097      -0.00850315      -1.56534943      -0.25064915
O        8.15028156       8.56557984      17.42204839       0.35645571       0.65863440      -0.47059213
H        8.93446927       8.11022285      17.65599763       0.95600308      -0.98994164       1.44372596
H        8.36242871       8.60436853      16.48773310      -0.91725655       0.57971696      -1.16648902
O      -11.18670040      -0.72987825      18.47828610      -0.35407333      -0.24292607      -0.63573102
H      -10.66821256      -1.52712605      18.67910885      -0.66423941       0.04733864      -0.11364945
H      -11.84674313      -0.98341764      17.78823902       0.71303895       0.09104637       0.97604740
O       22.69503470       4.00474963      19.09154957      -1.79931469      -2.12238925      -2.71056514
H       22.22258529       3.31821628      18.40965181       1.35110967       2.32492021       1.54473432
H       22.59380310       3.45698242      19.86409538       0.27849472      -0.09890263       0.97363570
O       -4.97554639     -18.87792073      -3.72662467       0.33879429      -0.00833140       0.72217665
H       -4.09095789     -18.86754885      -3.25351378      -0.70944969       0.15295494      -0.20328532
H       -4.82189979     -19.09774094      -4.64425500       0.09206453      -0.24587718      -0.59154918
O       27.64061907     -10.03663956      -7.21003949       2.71337793      -0.09764382       1.92125698
H       28.56313371     -10.00975736      -6.65519719      -2.11403317       0.63380783      -1.96417384
H       27.19330558     -10.59502736      -6.57275138      -0.79150903      -0.19107309      -0.11828618
O        6.96926386       0.34402022       5.89455787       0.15823444       0.17199859       2.33616107
H        6.91010185       0.59992291       6.86930229      -0.17308976      -0.38797384      -1.81967269
H        7.22453895      -0.59115445       5.89334076      -0.06767298       0.15708362       0.09161818
O      -18.62021143      -2.03114089      24.54964207       2.40631106      -2.07084377       0.63745365
H      -18.82579677      -2.33972529      23.63458884      -0.00441818       0.34591007       0.62678358
H      -17.82464641      -2.65755970      24.87730860      -2.36838214       1.91363109      -0.97728153
O        4.88410457      -6.75822799      -5.54921682       0.02217114      -0.12952756      -2.01840355
H        5.20116638      -6.31827006      -4.74055466       0.08632325       0.44309830      -0.64638567
H        5.23333507      -6.39134943      -6.44125084      -0.31749835      -0.45975802       2.41449745
O       12.15218422       9.78707959       6.31858757      -2.32479680       3.34102540       3.70837436
H       11.77461628      10.31519845       7.24411851       1.54112449      -2.39440171      -3.87803633
H       11.89278155      10.46336807       5.63018093       0.72237720      -1.13079697       0.42533814
O        4.43175859      11.87341366      -5.10165990       0.23590130      -1.16561999      -2.71873097
H        4.06190606      11.41646914      -4.34855606      -0.70085706      -0.34147441       0.85906220
H        4.22329982      11.23866560      -5.89688625       0.17364512       1.42733260       2.16573292
O       13.21900547      29.02664002      15.90510899       1.64823666      -1.05511911       0.90931184
H       13.70399639      28.93953746      16.78042102      -1.54810761       0.60756201      -1.48703876
H       12.32982901      29.43564109      15.92611733       0.53707778       0.17160109       0.88689696
O       -4.10051483       3.99022371       1.21240849       3.52842798       4.99555612      -1.20352834
H       -4.29834244       5.03262344       0.97218850      -0.28157027      -3.44290280       0.13553983
H       -4.83862708       3.50298380       1.45779325      -2.91409368      -1.10117786       0.95659443
O        6.56999966     -15.80699954       8.89901440       0.93684321       0.81610420      -0.30339122
H        5.89122405     -15.11356572       8.71544282       0.04547253      -1.12677062       0.08701591
H        6.22238315     -16.68866169       9.04945948      -0.83239471       0.31034503       0.07072385
O        1.65242463       8.72078751      22.82431269      -0.11530473       0.55430417      -1.87753280
H        1.54069416       7.95395682      23.38116587      -0.12863487      -0.89590611       0.29596331
H        1.67888349       8.32782052      21.88629317       0.46353805       0.55560001       1.72288607
O       22.91511950      22.85294118      -0.32201545      -1.21165817      -0.86684750      -0.54627205
H       23.36100422      23.68247938      -0.18107968       0.42908373       0.19245120       0.58762053
H       22.27412715      22.64111154       0.38846105       0.50748592       0.18622502       0.02137615
O       11.96183917       5.99319650     -16.66627749      -0.12294142      -0.19061595      -2.62741566
H       11.79472501       5.02690833     -16.57737572      -0.06584956       0.71406225      -0.05009589
H       11.97030601       6.24497902     -17.68504946      -0.21656301      -0.42789433       2.51827747
O       -7.75615038      22.88384513       1.76380585       0.78749296       0.92224963       4.03016337
H       -8.57563420      22.37996259       1.68921303       0.12834228      -0.20961691      -0.11236082
H       -7.66772486      23.08884838       2.90891359      -0.51036299      -0.48111720      -3.98165179
O        5.20647403     -15.66830219      17.50819844       1.18966495       2.09607144       1.37006384
H        5.93699788     -15.58569763      18.22264059      -0.93406128      -0.66039304      -1.56034606
H        4.89739221     -14.70895683      17.51629485       0.06019724      -1.13911191      -0.38095576
O        1.76133459      18.69641294       0.57801498      -2.51225080      -0.76211103      -2.13711139
H        1.16449149      18.82553218       1.37979783       0.41283641       0.14168785      -1.09832907
H        1.09147562      18.51067174      -0.24702151       2.75605310       0.89063534       2.96704813
O       -4.67106840      -6.54047157       6.54221785       0.29882546      -1.68153245      -0.99981468
H       -4.37135302      -7.46203368       6.20793661      -0.38923111       1.53666620       0.90521864
H       -5.51963581      -6.39695871       6.07648899       0.44896093      -0.06039727       0.18525211
O       -3.53516306       2.26197857       8.47741891      -1.82966914       1.10188234       0.26962750
H       -2.87086574       2.68327771       9.00834241       0.91608413       0.14716636       0.47270404
H       -3.33475836       1.33587083       8.41809815       0.71524496      -0.71476159      -0.36660334
O       14.28291625      -6.86967271      -2.45764714       2.81538388      -1.23503464       0.37442567
H       13.47967817      -7.04504204      -2.98524740       0.20992956      -0.21164346      -0.37207568
H       15.12213839      -7.39218229      -2.73928583      -2.82368341       1.38791759       0.53325712
O       11.49124188       3.48392283      23.58780957      -4.69304524       1.34733015      -0.89089245
H       10.81320712       3.22980665      24.25626622       1.03963593       0.20953875      -0.52984784
H       12.27569418       3.14015873      23.87795744       3.36551258      -1.92945366       1.32239559
O        8.06788867      13.77363611      25.39875982       0.65275172      -2.36684976      -0.08300087
H        8.94939207      14.15316200      25.66064962      -0.41797604      -0.93493031      -0.50162226
H        8.13662879      12.72311351      25.25376527      -0.25937753       3.48383476       0.29233754
O       -9.14656350       5.80697904      11.48769639      -9.73651129       2.23518356       2.11511303
H       -8.31755448       5.74644116      11.64142237       9.32158663      -0.84873664       1.45788245
H       -9.53222785       6.10908631      12.43381233       0.74187130      -1.27681507      -3.52854625
192
Lattice="12.749514 0.0 0.0 -1e-06 12.749514 0.0 -1e-06 -1e-06 12.749514" Properties=species:S:1:pos:R:3:force:R:3 TotEnergy=-30025.457224468242 cutoff=-1.0 nneightol=1.2 CONVERTED_ID=1175 pbc="T T T"
O       11.58024949       0.72498865     -16.52445800      -0.97465386      -0.75413547       1.86521721
H       11.81181743       0.78436763     -15.53965921       0.39663486       0.32634758      -1.67838027
H       10.76372905       0.18189091     -16.44460516       0.64889506       0.29650427      -0.50923119
O       26.36344988      24.79401611       4.85561367       2.02245561      -2.63123632      -0.14050771
H       26.70196454      23.84678890       4.58326732      -0.98568904       2.92085569       0.58663323
H       25.49327087      24.94361450       4.49529690      -0.49881256      -0.09458524      -0.50053726
O        4.55044246      -0.28422796       6.68409026      -0.90766633       0.39404319       0.62174936
H        4.83529855      -1.07390165       7.11166545       0.53881585      -1.16297175       0.19309449
H        4.04536927       0.15737889       7.41435481       0.47706257       0.33834897      -0.69970521
O       -2.84938115      -4.43740492       0.99063032       1.18784461      -2.75887103       0.67069288
H       -2.61852230      -3.73749926       0.44086071       0.59413571       2.17408900      -1.65801714
H       -3.60226273      -4.18081218       1.49332221      -1.63788025       0.63756164       0.37833889
O        4.24721333      15.84552364      10.73478306       2.12500664      -0.68777529      -0.72945802
H        4.32293330      16.65564103      11.23829517       0.09565224      -0.12547447       0.08994799
H        5.19970056      15.68020868      10.36293023      -2.09063613       0.75917483       0.26485347
O       -1.38442283       6.65292173       5.13221459      -0.14604176       1.07290086       2.29623184
H       -1.16714796       6.34425266       4.30304153      -0.31276907      -1.84473066      -3.60590046
H       -0.51785864       7.04266074       5.23280589       0.50999121       1.25631823       0.93107880
O       22.81806840      12.30516935       5.78538861       0.21763156       2.59595050      -2.25235853
H       23.17335798      13.23964338       5.97626283      -0.69821911      -2.03539854      -0.15483493
H       22.49505863      12.44190874       4.78045992       0.29224960      -0.80272932       3.30715882
O       -0.99380009     -15.77509015       6.81807793      -3.72314792       4.57878540       0.82365296
H       -0.45485215     -16.08402381       6.13538641       1.90621603      -0.77239544      -2.17517915
H       -1.49262899     -14.86474660       6.47252522       2.06904914      -3.36146053       0.95421873
O       15.45499086     -17.88148004       9.66319921       2.50760739      -0.04106669       1.58906014
H       16.20885671     -18.30376345      10.29202049      -2.09760896       1.18680074      -1.71154751
H       15.70476250     -16.92102340       9.71442356      -0.85163171      -0.90600540      -0.32168822
O        3.25136003     -14.66133088     -13.33013269       2.06744992       0.36551628      -0.87928649
H        4.07719399     -15.24898217     -13.27065317      -1.49387790       1.09344398       0.34611011
H        2.57298131     -14.89321633     -12.72210807      -0.53344224      -1.09837535       0.78257701
O       -5.74231358       1.54765284       2.85520210       0.05776549       1.79924270      -2.83686288
H       -6.46929723       1.30210932       2.21823678       0.60828706      -0.53184816       1.46463931
H       -5.43554955       2.35845287       2.31344635      -0.03669324      -1.47314966       1.41130948
O       -5.38575398      16.01581287      25.98963910       3.63605951       3.41236837       1.39745638
H       -5.29129585      15.31565850      25.36113532       0.29916279      -0.48534152      -1.04739552
H       -4.35831409      16.55647322      26.03186744      -4.38789641      -2.61836023       0.15547668
O        7.41874699     -15.71936779      -8.56404522       3.18573075      -1.49329683      -1.11771519
H        7.76011920     -16.59404480      -8.22976398       0.76401365       0.79971599      -1.13124948
H        6.70255855     -15.71397019      -8.01100212      -4.18588482       0.95097400       2.10812477
O       13.68023633       8.54409524      17.93683198      -0.33479622       0.61120269      -1.37315431
H       14.04198187       8.80058744      17.02638259      -0.14830484      -1.42374848       2.52785740
H       14.22989270       7.91326309      18.49035134       0.42675071       0.98222319      -1.11628052
O       -0.15136532       1.17568888      -1.25246721       2.18912996      -2.73420901       2.65010308
H        0.81402801       1.41365458      -1.19074398      -1.65726637       0.32978000      -0.75544159
H       -0.07980151       0.32297696      -0.61002490      -0.91703029       2.23054529      -1.61622642
O      -14.19501992      12.66273439      15.80837540      -2.69418207      -0.48204331       2.96150483
H      -14.08447480      12.39100189      14.93772014       0.99917704      -0.70888405      -3.11449576
H      -15.12377884      12.22245895      16.00036089       2.02087695       1.12465717      -0.64804146
O      -16.50710099       5.89053612      12.35020233       4.24193487       2.41879633       4.02696492
H      -17.07337352       5.99335525      11.63549559      -1.61666351       0.80651913      -2.36746683
H      -15.87981432       6.77749004      12.58092359      -2.84351175      -3.06843702      -1.29288961
O       -9.93085704      32.95535747      -9.56657145      -1.72424876      -3.89490277      -1.55722988
H       -9.34108904      32.25430350      -9.17445113      -0.62378053       1.50655344      -0.30745922
H      -10.60434088      32.31637599     -10.11273525       2.37156002       2.59597621       1.69508216
O       34.72598442      11.51680114      21.45279120       2.17337423      -3.66507698      -4.72203186
H       34.76890069      11.55188559      20.38697538      -0.72570421       1.04896389       3.14770928
H       35.17197497      10.55581533      21.38193437      -1.30428988       2.62123987       1.33160528
O       30.39017094     -12.69961804       2.17083838       1.87124388      -1.69857886       4.05934539
H       29.79241237     -12.15017334       2.64960088      -1.10339929       0.85046957      -0.15553273
H       30.32688135     -12.61913019       1.28064589      -1.06444193       0.70290366      -4.01793006
O       17.59329013       9.34982046      -7.42393292       1.10680343      -3.87021503      -1.82681007
H       17.75654130       8.24436927      -7.47171762      -1.13673107       3.47949988       0.23047370
H       17.49332856       9.50084764      -6.49755530      -0.11765780       0.22806458       1.17665002
O       -5.19974290       2.63030178      32.17810198       2.28134515       1.20330208       2.02705274
H       -5.76908995       2.18207810      31.62262467      -3.03716726      -1.14784852      -1.86367969
H       -4.51727363       1.96271298      32.26456954       0.78159999       0.49623477       0.34845495
O        3.72383591       0.83603649      -0.23808953      -1.66984421      -0.93574278       4.31179689
H        3.50995306      -0.10580845      -0.28170855       0.15986709      -0.33859066      -0.97320890
H        4.04865017       1.22581255      -0.97762315       1.31076906       1.28306285      -3.55878757
O       23.25961387       3.22112814      11.66518243      -2.69131786       1.84715778       0.95865645
H       22.89178279       3.69758342      12.53435600       2.37940189      -1.80444147      -1.95226449
H       23.95712235       2.57524619      11.70460613       0.70677574      -0.40684625       1.21764370
O       -1.44264291      31.80788961      14.97783177      -2.43218150       1.74813945      -0.26876669
H       -1.90867870      32.56244339      14.49384629      -0.05665992      -0.89348927       1.18557689
H       -0.63238793      31.96923574      14.54845738       2.57770081      -0.78182111      -0.49849015
O        4.83401265      19.39249265       5.20213478      -4.81137770       0.19156108       1.67680162
H        4.19375585      18.92559959       5.89170031       2.17337938       1.68208266      -2.11604891
H        5.66431286      18.99529223       5.20644228       2.29477659      -1.78172320       0.33534952
O      -10.11733909      10.47273450       9.45824887       0.63578244      -0.46584588      -6.59997089
H      -10.56179503      10.95322741       8.62468893       1.21725803      -1.48330038       2.70911504
H      -10.49601830      10.85548838      10.17052140      -1.61495115       1.85948879       3.68856144
O       17.70605779      17.76738943      26.21935492       2.23417569       0.65033488      -0.37400349
H       18.51691603      17.23879432      26.00022264      -1.20512756      -0.03114377       0.06679881
H       16.93769248      17.24535612      26.08018132      -1.10779073      -1.14948375       0.04762249
O        6.93529069      18.72588811      10.12019665      -0.66588492      -2.15761851       1.38708455
H        7.17553714      19.43673186       9.56392556       0.01087165       0.53087628      -1.46345660
H        6.77701378      17.86063046       9.62658014       0.52186199       1.19861239       0.59308670
O       -0.61552306     -13.79612614      13.26192174       1.58590283       0.24891366       1.67162341
H       -1.32075752     -13.98700036      12.60902290       0.43490470      -1.57931052       0.43927249