96
Lattice="9.855538964950302 0.0 0.0 0.0 9.855538964950302 0.0 0.0 0.0 9.855538964950302" Properties=species:S:1:pos:R:3 #=T CELL(abcABC):=T 9.85554=T 90.00000=T Step:=T 1718800=T Bead:=T 0=T x_centroidangstrom=T cellangstrom=T count=0 pbc="T T T"
H        6.53278311       2.81678828       5.78687896
H        6.55758311       1.70548828       6.72744896
O        7.12628311       2.40368828       6.38161896
H        0.48720896       1.47777793       5.11821689
H        1.24602896       0.51327793       5.99801689
O        1.24569896       1.44077793       5.75081689
H        8.94714414       8.21175068       6.59001689
H        7.90354414       7.08615068       6.78891689
O        7.95084414       7.99645068       6.55091689
H        4.65747896       0.15828311       2.29157896
H        4.57010896       9.19392207       1.18340896
O        5.12484896       0.03498311       1.52222896
H        2.42111896       4.61985068       8.57259482
H        1.01110896       5.15165068       8.46039482
O        1.83475896       5.27615068       9.00869482
H        5.44870518       3.89920518       8.20616104
H        5.92830518       4.77520518       9.32432207
O        5.17190518       4.20280518       9.07226104
H        3.63747793       1.47348311       0.61224414
H        2.23517793       1.96938311       0.82094414
O        2.90097793       1.99428311       0.19614414
H        7.44521689       7.03418311       0.17492207
H        7.42811689       5.55978311       0.16372207
O        7.48551689       6.30068311       9.45306104
H        1.30722000       7.49507793       5.99595586
H        1.26836104       6.43847793       7.12975586
O        0.73198000       6.84987793       6.40955586
H        9.25927793       0.80342207       1.35462207
H        0.36331896       9.75349000       2.00512207
O        0.36084896       0.49166104       1.28252207
H        6.81045586       5.40631689       3.71141689
H        7.42135586       5.69961689       4.99951689
O        6.58215586       5.43971689       4.68621689
H        9.57247793       4.25789482       3.48858311
H        9.75139793       5.15729482       4.82638311
O        9.68047793       5.12419482       3.84488311
H        8.44203000       1.90275000       3.11442725
H        8.21806000       0.99984600       4.33872725
O        8.94247000       1.51757000       3.90472725
H        0.12079482       3.04426104       0.85585000
H        0.70469482       4.37696104       0.20697800
O        0.33709482       3.98706104       0.99996300
H        5.22902207       6.43044414       7.01454932
H        3.89242207       6.20244414       7.66264932
O        4.47652207       6.88834414       7.35974932
H        0.05125586       1.49494414       7.86871172
H        8.60969482       2.18254414       7.88041172
O        9.37233379       2.03904414       8.41571172
H        3.94416000       8.88674414       4.92908000
H        4.10778000       9.16494414       6.55464000
O        4.47588000       9.30604414       5.68317000
H        3.23558311       2.67404414       8.22863379
H        2.67288311       2.81864414       6.94783379
O        3.08288311       3.38324414       7.58109482
H        9.39896621       3.67792207       7.25164414
H        8.43606621       4.52622207       7.80460518
O        9.22166621       4.64202207       7.23964414
H        7.43716621       3.56161689       1.89581896
H        8.45296621       4.66761689       1.60579896
O        7.57506621       4.54251689       1.93610896
H        6.16057275       9.81054676       4.72350896
H        7.09277275       8.80599896       5.31741896
O        7.01217275       9.43607096       4.51613896
H        0.90775586       8.65139482       8.06096104
H        1.24775586       0.08325586       8.88136104
O        1.45255586       9.50239482       7.97946104
H        9.49395586       7.22741689       9.52683379
H        9.08745586       8.58311689       0.34439482
O        9.63115586       8.17861689       9.50523379
H        3.61447793       7.32316104       3.87160000
H        2.64511689       8.33386104       3.29207000
O        3.58487793       8.23426104       3.50599000
H        2.43162000       4.93648311       1.64998311
H        3.68838000       5.23538311       0.80508311
O        3.28059000       5.41088311       1.65838311
H        0.46391689       6.76455586       3.10024414
H        0.33611689       7.75725586       1.85014414
O        0.64561689       7.66995586       2.75154414
H        7.45186621       1.61904414       0.30986104
H        6.69016621       1.10990518       1.63634000
O        7.50986621       1.59904414       1.34545000
H        6.81972207       9.15529596       8.13686104
H        5.46482207       9.56300096       8.75546104
O        6.32122207       0.00500588       8.48796104
H        6.91256621       8.71901689       1.33727793
H        7.47852725       8.69431689       2.83291689
O        7.64736621       8.44281689       1.90501689
H        3.95682207       1.79845000       4.42581000
H        4.45702207       3.25205000       4.06617000
O        4.50102207       2.31949000       3.80823000
H        3.10351689       8.29477275       9.44232207
H        2.85741689       7.39337275       0.87238311
O        3.55441689       8.02987275       0.41038311
H        4.77226104       5.31904414       4.43053896
H        3.68456104       5.45324414       3.24932896
O        3.94626104       5.72150518       4.11208896
96
Lattice="9.855538964950302 0.0 0.0 0.0 9.855538964950302 0.0 0.0 0.0 9.855538964950302" Properties=species:S:1:pos:R:3 #=T CELL(abcABC):=T 9.85554=T 90.00000=T Step:=T 1192500=T Bead:=T 0=T x_centroidangstrom=T cellangstrom=T count=1 pbc="T T T"
H        1.41486104       5.71734414       3.71452000
H        0.69506104       4.48634414       3.67930000
O        0.52376104       5.39944414       3.94283000
H        0.83428896       3.03181896       9.74021689
H        1.77671896       3.03363896       8.43281689
O        1.76575896       2.99509896       9.35991689
H        9.66384414       7.29785586       2.95733379
H        9.44884414       7.85145586       1.46773379
O        9.28914414       8.04885586       2.43643379
H        3.92727793       7.53576104       0.10052207
H        3.41877793       8.62586104       9.13426104
O        3.84577793       8.46106104       0.10802207
H        2.36279000       8.81787275       7.20431689
H        1.43371000       9.68077275       8.31421689
O        2.33620000       9.37347275       7.96361689
H        5.51874414       6.37754414       2.14164414
H        6.70944414       6.15354414       1.38110518
O        6.12514414       6.87244414       1.67644414
H        2.31229482       8.81986000       1.65162207
H        1.17749482       8.82649000       2.82772207
O        2.12999482       8.88252000       2.61422207
H        9.18643000       0.11811104       9.53338396
H        0.46966104       1.17076104       9.63013696
O        0.05066104       0.47336104       9.05787696
H        9.22517496       0.94671689       7.15385586
H        8.47556000       0.41151689       5.86455586
O        8.42824896       0.56551689       6.80835586
H        6.42857793       0.21758896       4.78917793
H        5.63487793       8.72081689       4.57067793
O        6.15557793       9.41971689       4.09117793
H        7.60812896       2.43058896       4.04526104
H        6.90226896       2.75180896       2.56006104
O        6.94398896       2.90706896       3.53516104
H        4.36172000       7.34217793       5.80844414
H        3.84176000       7.69017793       4.42584414
O        4.62085000       7.50837793       4.90684414
H        7.87231000       9.05936104       1.44360518
H        6.72181000       0.14532207       1.00940518
O        7.65742000       9.79076104       0.79320518
H        5.57723379       9.72666296       2.47776104
H        4.55593379       9.48081396       1.28676104
O        5.07423379       0.31347400       1.76286104
H        2.15352207       2.31792207       3.46622725
H        1.45992207       3.02722207       4.64832725
O        1.22712207       2.54632207       3.85342725
H        3.31141689       0.28924414       4.24115586
H        4.10881689       1.58304414       4.26215586
O        3.38275586       1.11074414       4.61275586
H        3.97368311       0.72120518       7.47337896
H        5.53418311       1.18630518       7.99074896
O        4.87758311       1.11720518       7.21645896
H        9.58982207       7.46052207       9.23209482
H        9.61412207       6.00952207       9.66459482
O        0.20518311       6.87192207       9.83745586
H        3.36686621       2.73598311       1.25904414
H        4.22496621       1.77908311       1.89920518
O        3.84566621       2.66298311       2.10544414
H        9.72730518       1.27252896       4.35517793
H        8.96870518       0.11474896       3.59417793
O        8.85130518       0.89418896       4.10927793
H        2.92981689       5.04596104       9.40347896
H        1.96221689       5.98256104       0.21832100
O        2.93511689       5.71596104       0.23329900
H        7.91685896       5.86181689       4.36544414
H        7.58527896       7.03531689       3.40574414
O        7.44926896       6.68011689       4.24844414
H        5.44551689       7.69524896       8.33901689
H        6.55331689       7.22397896       7.42541689
O        5.64751689       7.01564896       7.71041689
H        3.80097793       4.89761000       3.30481689
H        3.15921689       5.35990000       1.98501689
O        3.06767793       5.41590000       2.89871689
H        0.95351896       7.18392207       7.16050518
H        1.28524896       6.20282207       6.07300518
O        1.66668896       6.84312207       6.68210518
H        8.53497275       3.58961689       7.30644414
H        7.61357275       4.74821689       7.55124414
O        7.96367275       3.93201689       7.95174414
H        8.13162207       8.80617000       7.41481689
H        8.46782207       7.81146104       6.45935586
O        8.33002207       7.84986000       7.40995586
H        4.93062207       5.31596896       7.77105586
H        4.91652207       4.16569896       6.71335586
O        4.56462207       4.49624896       7.52335586
H        5.64780518       3.06433000       0.48067793
H        6.53006621       3.16207000       9.07125586
O        6.53590518       3.00245000       0.18781689
H        2.90656104       4.00256896       7.03186104
H        2.93246104       2.40545896       6.47686104
O        2.50766104       3.25181896       6.46526104
H        5.69455586       3.68239482       4.31502207
H        5.38475586       5.28549482       4.46452207
O        5.11525586       4.38309482       4.68942207
H        8.36292207       2.93234414       0.60598400
H        9.38282207       2.43234414       1.63818000
O        9.23892207       3.15230518       1.03078000
96
Lattice="9.855538964950302 0.0 0.0 0.0 9.855538964950302 0.0 0.0 0.0 9.855538964950302" Properties=species:S:1:pos:R:3 #=T CELL(abcABC):=T 9.85554=T 90.00000=T Step:=T 270400=T Bead:=T 0=T x_centroidangstrom=T cellangstrom=T count=2 pbc="T T T"
H        9.22057996       4.93388311       4.01502207
H        8.28676896       4.04878311       4.83382207
O        9.00085396       4.04678311       4.26332207
H        9.68871796       7.44557793       1.06596104
H        0.81874200       8.06247793       0.19406104
O        9.68714396       7.90937793       0.28156104
H        6.06642207       6.88612207       9.48967793
H        5.97522207       5.36402207       9.60177793
O        6.08052207       6.16142207       0.23182896
H        5.32916896       3.28494896       8.75960000
H        3.95809896       3.76889896       9.22428000
O        4.91364896       3.89280896       9.36257000
H        7.97667793       4.41997793       9.13991689
H        7.93287793       5.30297793       0.47407793
O        8.45657793       4.56307793       0.11457793
H        3.49206104       7.70926896       8.96757396
H        2.50826104       8.52284896       8.27857000
O        2.63206104       8.05918896       9.12494996
H        4.09090000       7.47517793       5.99824414
H        3.55891000       8.85567793       6.46624414
O        4.25498000       8.23657793       6.59324414
H        1.14307000       1.29942207       4.27182207
H        9.76517106       0.42482207       4.12902207
O        0.75052800       0.43572207       4.58562207
H        8.68449896       1.79364000       9.21667793
H        7.47978000       1.81838000       0.21618896
O        7.87238896       1.28486000       9.38037793
H        3.47341689       4.57102207       6.21847793
H        4.26091689       5.33556104       5.26497793
O        3.41871689       5.39666104       5.72267793
H        2.91267793       2.29940000       2.06906104
H        4.16267793       2.98076000       1.64996104
O        3.56367793       2.89176000       2.38366104
H        9.24103896       1.24121000       2.04766104
H        9.50514796       9.45510196       1.85896104
O        8.98408496       0.28855000       2.38546104
H        6.12642207       9.39727793       3.72238311
H        7.55172207       9.71328793       3.44308311
O        6.88132207       9.78839793       4.11798311
H        1.96002000       6.63901689       4.99177793
H        1.78661000       8.09531689       4.37917793
O        1.35570000       7.37361689       4.78097793
H        8.36506104       6.55840000       3.43706104
H        0.14302207       6.87821000       3.85576104
O        9.28836104       6.66634000       3.13466104
H        9.04636104       6.07486104       7.32627896
H        9.27636104       4.56606104       7.19714896
O        8.93927000       5.31926104       6.72554896
H        2.72988311       1.17601000       7.38531689
H        1.74048311       0.77379900       6.18521689
O        2.29688311       0.38583500       6.92581689
H        0.06488104       3.21792207       2.60354896
H        9.58008000       2.84252207       1.30310896
O        0.35206104       2.55282207       1.95919000
H        6.41156104       1.36536104       7.91116104
H        5.37466104       1.80736104       6.75332207
O        5.55906104       1.75216104       7.71816104
H        5.06430000       2.26696104       4.23142896
H        6.18689000       1.63706104       4.67377896
O        5.79479000       2.52206104       4.76497896
H        7.34876896       6.35136104       5.71531000
H        6.73291896       7.52446104       5.07746000
O        6.92085896       6.59926104       4.83370000
H        1.74415000       5.73667000       8.43652207
H        1.99425000       5.07267000       9.75302207
O        2.06580000       4.91241000       8.84492207
H        3.30610000       1.00796104       9.47862096
H        1.91279000       1.79236104       9.44662296
O        2.85836000       1.81456104       9.27531696
H        2.08712207       6.17917793       2.16676104
H        2.12476104       4.60037793       2.46376104
O        2.08472207       5.31737793       1.80216104
H        0.71344896       2.43936104       7.41488896
H        0.97587896       3.65126104       8.38099896
O        0.29213896       2.81726104       8.18263896
H        4.11767793       8.22617793       2.89003000
H        3.48077793       9.51057793       3.33519000
O        3.74527793       8.66277793       3.64637000
H        7.21536104       3.40902896       1.68847793
H        7.08176104       2.54570000       2.59461689
O        6.71256104       2.62905896       1.69801689
H        7.11260896       8.65531000       7.97584000
H        5.58945896       8.34799000       7.47595000
O        6.31857896       8.08219000       8.17542000
H        2.07745000       3.65456104       5.00907793
H        0.60846104       3.16166104       5.06791689
O        1.53867000       2.89286104       5.15451689
H        4.53825000       5.63248000       2.51736104
H        5.53659000       6.30490000       3.27366104
O        4.68233000       5.98915000       3.38796104
H        9.60902896       8.62191000       8.04846104
H        0.20089100       8.89278000       6.65646104
O        9.44523696       8.43405000       7.16016104
H        5.62216104       9.19376796       0.09173640
H        5.67746104       0.34303600       1.24804000
O        5.25026104       9.49946000       0.91057300
96
Lattice="9.855538964950302 0.0 0.0 0.0 9.855538964950302 0.0 0.0 0.0 9.855538964950302" Properties=species:S:1:pos:R:3 #=T CELL(abcABC):=T 9.85554=T 90.00000=T Step:=T 1145200=T Bead:=T 0=T x_centroidangstrom=T cellangstrom=T count=3 pbc="T T T"
H        0.49336104       7.00028311       2.14651000
H        0.78266104       8.46518311       1.74227000
O        1.22966104       7.60348311       1.94071000
H        0.38701600       7.74694896       8.61841689
H        8.99942596       8.26317896       9.25821689
O        9.76487096       8.54625896       8.70641689
H        8.05204414       8.53831689       6.10463379
H        8.13324414       0.21287793       6.59133379
O        7.57754414       9.35961689       6.13653379
H        1.83447793       3.87666104       1.44386104
H        2.87557793       4.04636104       2.49166104
O        2.61507793       3.45696104       1.79946104
H        7.53302000       0.36703379       4.45551689
H        7.31710000       0.55403379       2.83351689
O        7.46679000       0.99103379       3.70911689
H        0.96744414       3.97380518       3.85918311
H        9.78678311       5.05150518       3.62084414
O        0.83714414       4.89900518       3.95848311
H        3.75439482       0.11059000       2.78102207
H        2.72919482       9.05398996       3.09802207
O        3.28489482       9.71375496       3.55512207
H        8.32906104       2.47256104       7.80878896
H        8.93806104       1.43006104       8.71166896
O        8.52976104       1.51436104       7.86108896
H        5.07488896       5.87671689       6.20805586
H        5.40200000       7.24251689       6.77115586
O        5.50393896       6.74921689       5.98105586
H        5.28337793       7.29207793       9.16171689
H        5.46567793       8.81271689       8.64221689
O        5.66887793       7.94501689       8.39011689
H        7.98487793       4.76609896       2.65092207
H        7.94627793       3.40500896       1.88112207
O        8.52117793       4.13850896       2.17682207
H        3.30806104       4.63427793       5.01728311
H        4.06506104       3.49147793       5.49478311
O        3.42396104       4.16197793       5.81838311
H        1.48026104       1.75506104       1.45330518
H        1.29826104       1.03706104       0.17610518
O        0.90966104       1.08156104       1.03490518
H        5.77633379       5.57038896       0.42882207
H        4.51753379       6.54769896       0.83542207
O        5.46143379       6.33838896       0.98652207
H        5.37376104       5.02466104       3.51562725
H        5.55276104       5.01766104       2.08822725
O        5.68576104       4.44046104       2.86412725
H        7.46291689       7.35028311       3.25621689
H        8.72451689       6.95808311       4.07911689
O        8.24845586       6.76828311       3.24201689
H        4.22188311       1.38270518       1.51682896
H        4.62818311       0.40500518       0.31779896
O        4.63898311       0.48750518       1.29690896
H        0.94598311       9.18336104       5.84449482
H        1.77028311       8.63196104       7.00729482
O        1.65388311       8.53726104       6.08285586
H        0.83182725       0.68864414       3.91238311
H        9.43146621       1.25894414       4.40454414
O        0.54042725       1.46694414       4.41588311
H        1.61930518       6.59465896       6.77077793
H        1.76350518       5.00690896       6.81497793
O        1.55490518       5.82535896       7.30717793
H        4.43061689       0.93346104       5.22269000
H        3.05261689       1.52476104       5.79451000
O        4.01691689       1.49266104       5.89517000
H        6.47737793       0.89497793       8.42408311
H        5.37157793       0.89807793       7.41098311
O        5.53187793       0.78537793       8.34828311
H        8.81051689       0.74441000       1.26661689
H        7.66151689       0.04256170       0.56761689
O        7.92511689       0.90902900       0.92691689
H        5.27197793       3.99277000       8.24371689
H        6.69391689       3.91667000       8.78741689
O        5.87487793       4.43723000       8.82171689
H        6.61707793       3.63582207       5.15536621
H        7.74457793       2.55322207       5.47946621
O        7.18827793       3.31822207       5.84156621
H        8.56023379       5.50731689       6.22634414
H        7.35823379       6.39581689       6.17154414
O        8.26283379       6.33661689       5.93794414
H        1.13472207       1.67806104       7.28787793
H        2.32612207       1.62382207       8.17011689
O        1.61942207       2.19206104       7.88241689
H        7.27296104       7.40934000       0.74377793
H        6.97706104       8.17831000       9.32731689
O        7.47256104       8.23290000       0.29247793
H        2.39500518       7.07858000       0.49977793
H        2.72766621       6.99058000       8.89485586
O        3.13900518       7.21100000       9.74765586
H        5.45276104       7.67597793       3.98386104
H        5.78826104       8.84197793       3.01446104
O        6.07676104       8.03277793       3.34616104
H        9.13175586       4.73379482       0.04552207
H        0.07401689       4.89629482       8.64716104
O        9.20255586       4.47469482       9.02696104
H        3.06522207       6.58908311       5.02856000
H        2.39142207       6.10958311       3.73946000
O        3.23622207       6.32934414       4.14304000
96
Lattice="9.855538964950302 0.0 0.0 0.0 9.855538964950302 0.0 0.0 0.0 9.855538964950302" Properties=species:S:1:pos:R:3 #=T CELL(abcABC):=T 9.85554=T 90.00000=T Step:=T 1776600=T Bead:=T 0=T x_centroidangstrom=T cellangstrom=T count=4 pbc="T T T"
H        4.48334414       1.42448828       8.73807793
H        4.99374414       0.37318828       7.81267793
O        5.10354414       0.65758828       8.71357793
H        9.24398096       2.95737793       9.42381689
H        0.72130000       2.55447793       8.58121689
O        0.14902200       3.26527793       8.86211689
H        2.18634414       0.44987275       8.93845586
H        0.73204414       0.13207275       9.05165586
O        1.34724414       0.92467275       8.96575586
H        1.10327793       3.00458311       1.84187793
H        2.15547793       2.10448311       1.51367793
O        1.99657793       2.94318311       2.07197793
H        3.95289896       9.28378965       2.32455586
H        4.60705896       0.61245068       1.39975586
O        3.72349896       0.19845068       1.81015586
H        2.67356621       7.40260518       7.08066104
H        1.66726621       7.99180518       8.17352207
O        2.32296621       8.22680518       7.41726104
H        5.03771689       6.14698311       0.35800518
H        4.71091689       7.12878311       9.05524414
O        5.43531689       6.71338311       9.51574414
H        9.77681689       8.76386104       2.98388311
H        1.12247793       7.69966104       3.00878311
O        0.15497793       7.81926104       3.18938311
H        6.18378000       5.08700896       5.30909482
H        5.19336104       3.84700896       5.44019482
O        5.34405000       4.73739896       4.98759482
H        0.28824700       9.26106104       5.48572207
H        0.31104000       9.27974000       7.06642207
O        9.59035096       9.38121000       6.26922207
H        6.76851689       0.21711689       6.02827793
H        6.36881689       1.74931689       5.90297793
O        6.67001689       1.00251689       5.44057793
H        6.02653896       5.87689482       2.47448311
H        5.42395896       4.62939482       3.03868311
O        5.43003896       5.17039482       2.25488311
H        3.54537000       2.54166104       6.07048828
H        4.32288000       3.01266104       7.29828828
O        4.43265000       2.68996104       6.37418828
H        8.79737275       4.06715000       3.55816104
H        8.20177275       3.82519000       2.19996104
O        9.02447275       3.62802000       2.72076104
H        6.46388311       2.31144414       0.39554932
H        6.19768311       3.70224414       0.80174932
O        6.76398311       3.21084414       0.11854932
H        7.30495586       0.39030518       9.80725068
H        7.78115586       0.17220518       1.47081172
O        7.76549482       9.57714414       0.52231172
H        2.64795000       5.31010518       5.90550896
H        4.07394000       5.80770518       5.77157896
O        3.17170000       6.08560518       6.08131896
H        9.70686104       7.08114414       9.37147275
H        8.91746104       8.45734414       9.62057275
O        9.52606104       7.99364414       9.05323379
H        6.30546621       5.32322207       8.23644414
H        6.62446621       3.81152207       8.37520518
O        6.60846621       4.54722207       7.68004414
H        2.19816621       1.28955586       3.81607793
H        2.29576621       9.74289482       4.53367793
O        1.70506621       0.54785586       4.16667793
H        2.96947275       6.45554000       4.10278896
H        3.52487275       6.84202000       2.70544896
O        2.77437275       6.91705000       3.25007896
H        9.21615586       2.78015586       6.49572207
H        9.42135586       1.36755586       5.90222207
O        9.29245586       2.28225586       5.67162207
H        3.15891689       4.21317793       9.07893379
H        2.56351689       2.69997793       9.00413379
O        3.41421689       3.19197793       8.89323379
H        4.42221689       2.25322207       2.79576104
H        5.76255586       1.63142207       3.02676104
O        5.35521689       2.44162207       2.73356104
H        9.24355696       6.83008311       4.22952207
H        8.59936896       6.67978311       5.56592207
O        8.86600696       6.15178311       4.84402207
H        1.30935586       3.06975586       5.31004414
H        1.92015586       3.49885586       4.07344414
O        2.14295586       3.55535586       4.98964414
H        6.61446621       7.67768311       7.65487000
H        7.93796621       8.17984414       7.09682896
O        7.00426621       8.30238311       7.04137896
H        9.72662207       5.32013896       1.74752207
H        9.66842207       6.79863896       1.50822207
O        0.17108311       5.92328896       1.08152207
H        1.82886621       5.32161689       8.48767793
H        1.97592725       5.48471689       0.14297793
O        2.44336621       5.43821689       9.15251689
H        6.33706104       8.21159896       1.22745896
H        7.04006104       8.21957896       2.57637896
O        6.17896104       8.21749896       2.22195896
H        0.04917793       6.12167275       6.51132207
H        9.27301689       5.11807275       7.41582207
O        0.19517793       5.69347275       7.40012207
H        7.72606104       0.43184414       3.73903000
H        9.02526104       1.35774414       3.26699000
O        8.51896104       0.52100518       3.18732000
96
Lattice="9.855538964950302 0.0 0.0 0.0 9.855538964950302 0.0 0.0 0.0 9.855538964950302" Properties=species:S:1:pos:R:3 #=T CELL(abcABC):=T 9.85554=T 90.00000=T Step:=T 1173000=T Bead:=T 0=T x_centroidangstrom=T cellangstrom=T count=5 pbc="T T T"
H        1.15746104       0.92444414       6.15321000
H        9.64630000       1.47564414       5.63243000
O        0.42566104       0.75054414       5.58776000
H        1.46254896       7.49598896       5.94841689
H        2.58873896       6.51619896       5.72531689
O        2.39259896       7.27974896       6.26901689
H        7.63194414       2.48541689       5.15333379
H        7.31014414       1.07151689       4.32983379
O        7.33254414       1.54551689       5.19393379
H        9.46247793       8.75616104       5.13016104
H        0.51199896       7.71976104       4.35096104
O        0.02404896       7.87016104       5.22746104
H        0.75797000       1.63403379       2.82371689
H        2.17177000       1.68533379       3.42551689
O        1.57944000       2.16923379       2.87071689
H        3.35904414       3.03070518       0.03744414
H        2.23434414       2.38410518       1.13320518
O        2.93474414       2.25350518       0.47604414
H        8.99823379       5.09940000       9.67896104
H        9.67983379       4.06802000       0.57632207
O        9.07293379       4.16359000       9.68496104
H        5.52296104       1.26616104       8.29936896
H        5.62356104       2.81706104       8.09193896
O        5.49406104       2.17416104       8.73050896
H        6.81311896       0.62591689       9.75725586
H        8.07221000       0.22781689       9.27465586
O        7.32120896       9.74545586       9.69595586
H        8.97921689       9.62957793       2.89367793
H        9.33811689       0.21597793       1.43297793
O        9.53611689       0.34757793       2.36307793
H        5.10699896       7.12403896       8.33306104
H        5.84437896       6.50842896       7.09616104
O        5.51911896       6.28036896       8.05226104
H        4.59522000       4.01717793       4.72964414
H        3.23736000       4.23917793       4.53394414
O        4.04715000       4.55327793       4.21904414
H        3.14686104       9.03276104       9.13044414
H        1.88116104       8.22476104       9.03614414
O        2.34816104       8.84676104       9.62494414
H        7.31943379       6.46597896       8.89256104
H        7.83833379       7.88273896       9.10946104
O        8.09493379       6.98417896       9.21716104
H        6.91786104       7.32726104       2.95302725
H        6.58976104       5.76106104       2.85062725
O        7.24506104       6.39176104       3.14222725
H        3.15781689       5.23584414       9.82815586
H        4.08831689       5.20664414       8.57665586