16
Lattice="6.128189579059021 0.0 0.0 0.0 6.561391300402703 0.0 0.0 0.0 7.739229337497847" Properties=species:S:1:pos:R:3:forces:R:3 energy=-3875.324725063401 stress="-0.010962801925481453 -0.0025497236974088774 -0.0005316132592004825 -0.0025497236974088774 -0.02265003020935527 0.015681213909991436 -0.0005316132592004825 0.015681213909991436 -0.0046587317395220176" free_energy=-3875.324725063401 pbc="T T T"
Li       2.94367586       5.24349410       6.03756285       0.53995532       0.48073073      -0.50116971
Li       0.38146754       0.84934256       6.15561874       0.55430002       1.94170611      -0.44271285
Li       0.12979383       1.23430440       1.68120814      -0.51531978      -0.00198978       0.50692770
Li       2.31306432       5.48345072       2.33542915       0.20178969       0.05041650      -0.05609787
Li       3.07212211       2.44117290      -0.04469840       0.43194173      -0.15749421       0.12970830
Li       6.30979909       4.50588743       4.19685141      -0.61662741      -0.52650228      -0.52880753
P        6.32383142       4.52410409       0.04056923      -1.51352256      -0.58672934       2.82098431
P        3.19543537       2.13912730       3.77377285       0.42156219      -0.02153967      -0.30323796
S        5.67835105       5.51524561       6.21980111      -1.36802897      -0.11191446      -1.42158325
S        2.76945818       1.39185587       5.59677688      -0.93862852      -1.99360614       0.62544990
S        2.44137023       1.23805302       2.01952281       0.47139814       0.31942177       0.95075872
S        5.41828539       5.42720742       1.79948343       0.99089339      -0.26907083      -1.04620245
S        2.16535963       4.51798571       0.26086171       1.20825882       0.42428447       0.25306571
S        5.20804130       2.17443487       3.80358097       0.62611710      -0.10383220      -0.43386055
S        5.64419742       2.62107019      -0.11110837      -0.41926851      -0.53704020      -0.14610602
S        2.41923949       3.99058881       4.09239765      -0.07482090       1.09315979      -0.40711619
32
Lattice="14.07604971176199 0.0 0.0 0.0 7.535585061092358 0.0 0.0 0.0 8.88825121024355" Properties=species:S:1:pos:R:3:forces:R:3 energy=-7739.065268363545 stress="0.00601209606432601 0.0013542824824191912 0.0030556285433837754 0.0013542824824191912 0.006278361772733851 -0.00269571075822559 0.0030556285433837754 -0.00269571075822559 0.007265381209073261" free_energy=-7739.065268363545 pbc="T T T"
Li       8.53049996       8.47054021      11.72500032      -0.23696778      -0.46677709      -0.11432179
Li      12.38439991      10.56139945       1.41254989      -0.61673257      -0.65738583       0.79813778
Li      -2.83202941      -2.89089968       6.17597942      -0.04906410       0.11393407      -0.58674220
Li       7.91266976       5.75122054      10.71520000       0.50812789       0.05486348      -0.22885441
Li      -5.36373927       1.23232015      -1.72798994       0.30737873      -0.22212814       0.27632366
Li       7.00238993       4.33274042       3.54939980       0.20622896      -0.06393665       0.14894118
Li       0.82566729       3.90285927      -5.76171987       0.36693962      -0.22799232       0.17353789
Li       3.24410014       3.26038050      -1.53211045      -0.19307288       0.04743557      -0.43457300
Li       5.45967036       8.04184004      -1.92790926      -0.50001117       0.06533405      -0.04312280
Li      13.45879945       2.05596049      -2.24230064       0.99662926       0.79645731       0.22429327
Li      18.54549954       4.46139973       3.71308033      -0.49300800       1.09917643       0.41153206
Li      17.17520032      -2.69773968       9.71913931      -0.06258914       0.27948406      -0.19533159
P       13.59969930       5.16580045      -0.50189563       2.89468729      -0.35930113       0.63661028
P        5.73755974       6.56295959       0.72123286      -0.19508245      -1.26662081       0.62386301
P        4.11030927       2.15756001       4.60204058       0.28628437       2.65965221      -1.41224140
P       11.41909961       2.19815956       4.87824928      -0.78117930      -0.12927969      -3.20072596
S        5.72722932       6.74649016      11.73139930       0.33502554      -0.74675943      -1.02785248
S       12.16909969       3.72835003       8.19189918      -1.55458487       0.32977201      -1.90800897
S        2.34512056       3.30560966       4.57143925       0.88055398      -0.55104886       0.74145447
S       11.54099961       1.00282001       6.50907928      -1.16840286      -0.70041889       0.03164925
S        4.08409967       0.24977246       4.57594922      -0.61169861      -1.62258541       1.97940439
S        9.31445992      -2.07843994       3.67675005      -0.70043201      -0.23165742       0.26386460
S        3.96526965       6.94485971      -0.24405196       0.58923848       0.21431070       0.17704462
S       13.83339973       4.66728026       1.50905951       0.50296023       1.51317160      -0.19793432
S       -0.30837387       7.15669018      -0.85764667      -0.85100224      -0.69127759       0.13654435
S        6.17124987       4.51923963       0.41144434       0.09043958       1.20188223      -0.08531332
S        5.18447937       3.34049997       6.05778987       0.24558432      -1.24228763      -0.38135836
S       13.12010013       3.22282982       4.40067988      -0.74964241      -0.41791739       1.35452631
S        7.29241004       7.92205990       0.35601426       0.16452849       0.07048217      -0.82313662
S       15.24640005       4.35827015      -1.60389971      -0.61239615       0.17422695       0.46396019
S        4.97881984       2.61247964       2.68663930       0.45814899       0.26634109       0.48043505
S       10.79680027       1.33236989       2.87262052       0.54311032       0.71084935       1.71739458
32
Lattice="14.291169772147454 0.0 0.0 0.0 7.650734864009823 0.0 0.0 0.0 9.024073405603877" Properties=species:S:1:pos:R:3:forces:R:3 energy=-7736.325315209842 stress="-0.002118189618265135 0.002882096754111079 -0.0006069021836468376 0.002882096754111079 0.0037460830700137633 0.0008786768377458753 -0.0006069021836468376 0.0008786768377458753 0.005075575296822569" free_energy=-7736.325315209842 pbc="T T T"
Li       7.39754964       8.03781977      12.07879951       1.39738274      -0.47635265      -0.47513112
Li      12.20420024      13.09470018       2.43028059      -1.84724969       0.23382923      -0.02191531
Li      -4.97364006      -0.91008313       7.71395042       0.99731472      -0.81011424      -0.94665602
Li       9.64991946       7.69315963      10.58859922       1.40674644      -1.37213554       1.09454278
Li      -1.10498038       2.82554005       1.96987055       0.13809267       0.17493426      -0.57364577
Li       9.25255920       3.59174968       3.43806959      -1.54246984       3.45069298       0.62001639
Li      -0.13439988       4.38351050      -4.42123061       0.14857120      -0.07523845       0.10530493
Li       4.45004018       4.54660990      -2.29545055      -0.45342587       0.70137586      -0.09238025
Li       6.14641061       8.28441962      -0.91375167      -0.14238821       0.34111494       0.16606832
Li      11.66779976       3.56157959      -2.63503018      -0.08705190       0.26893379       0.41511103
Li      19.16159900       6.57599031       4.40176032      -0.08986468       0.21914849      -0.55676956
Li      15.59040002       0.60830650       8.16975013       0.02009908      -0.05196148      -0.39459929
P       13.61180043       4.82606944      -0.27840342      -1.52854294       1.44977848      -0.37225049
P        6.85744918       5.72196001       0.50371372       1.97713411      -1.30469062      -0.09279008
P        4.59259031       2.08822001       5.23727927       0.61751085      -0.03897998      -3.02860654
P       10.42379916       1.92728000       4.27504052       0.22942545      -3.11970947      -1.41067483
S        7.20003996       5.84290046      11.54309930       0.26623568      -1.20998840       1.03442885
S       11.31899947       5.12506929       8.42203930       1.24971297      -1.95685299       0.43011342
S        4.08409048       3.79886017       4.21066023      -1.19292373       1.20923687       0.76395265
S        8.84042044       2.10719011       5.46354993       0.65849757       0.85608916       0.51647112
S        3.20853053       0.61166350       5.29223025      -0.13673229      -0.44678548       0.49101668
S       10.22860036      -1.76793060       3.30808997      -0.63490153       0.33936582       0.29290727
S        5.04716955       6.47564057       0.30472918      -1.17393974      -0.02301394      -1.03107150
S       14.17549990       5.20933003       1.96657929       1.34262416      -1.63409033      -1.44736293
S       -0.48409337       6.69308929      -0.92930189       1.28456376       1.39769822      -0.57093763
S        7.40280022       3.80033931      -0.39414760      -0.26469918       3.09794920       1.17179981
S        5.49823031       2.71044039       6.88263022       0.95349978      -1.19577457       1.41139834
S       12.21689937       2.99004999       3.92141981      -0.10355375       0.97154249       1.47510308
S        8.14253975       7.59875931       0.17444231      -2.13892077      -0.22388909      -1.24718018
S       14.51829933       3.46215021      -1.60440961      -0.58595107       0.07974405       0.98189813
S        5.93713929       1.67541957       3.60364994      -1.55263109       0.12287122       1.51037655
S        9.60469934       2.03819949       2.28456068       0.78783435      -0.97472809      -0.21853811
32
Lattice="12.663686855387763 0.0 0.0 0.0 6.779504758031838 0.0 0.0 0.0 7.9964470737740365" Properties=species:S:1:pos:R:3:forces:R:3 energy=-7747.300542801499 stress="-0.004708312250742788 -0.00482216379502752 0.0006225108631052283 -0.00482216379502752 0.0039563411638944375 0.0011210704481585305 0.0006225108631052283 0.0011210704481585305 0.014331522215648242" free_energy=-7747.300542801499 pbc="T T T"
Li       7.25770963      12.97940017       2.49480963       0.18655462      -0.16811107       0.08090516
Li      -8.50853998      -2.08775948      -6.06406977      -0.13949032      -0.30989224       0.68961049
Li      -4.13590947     -11.42290008      17.88040021      -0.07560072       0.93020867       0.83569620
Li      17.19259992       1.11535042      15.74840014       0.21092816      -0.28049553       0.50716964
Li      -3.62964946      -3.40028983      -0.76576048      -0.48601229       0.48028593      -0.59004401
Li      11.50949944     -16.05720035      -6.70297050       0.40158497       0.40287438       0.01940129
Li       7.66436975      13.46770053       5.90938030      -0.73649687      -0.31518382       0.07296714
Li      -2.21146977       6.67015002       3.91078964       0.27320362       0.03839968      -0.07133500
Li       3.89162949      -5.23315969      12.50070014      -0.54458587      -0.22353402      -0.64977382
Li      13.72429976      14.16709950      -0.86733338       0.08950113      -0.27685176       0.24726119
Li       0.81095338      16.21069943      -2.94276982       0.34483481       0.46288162       0.26687665
Li      12.53419939       8.69109969      -5.67452970       0.20193007       0.19743167       0.02591209
P       13.38949974       5.88409978       3.39336026       1.10079236      -0.96740379      -0.15424665
P        7.29895020       2.92755060      -3.56887010      -1.93240463       1.90514656       1.31674343
P        2.62056004       3.41995021       8.01017958      -1.76144015      -0.35220668      -0.60238582
P        9.40687026       0.37797939       0.10388402       0.01601386      -1.88691924       0.74961438
S        6.66346993       3.86976056       2.63307050       0.38076547      -0.40921009       0.38189932
S       12.22009943       4.27910031      11.91620008      -0.83455849      -0.85833708      -0.95083432
S        3.20238047       2.25560018       9.59435995       0.12320881       0.18873594       0.02753034
S        7.41634004       0.80254216       0.48838015      -0.56999352       0.15418160      -0.98716529
S        2.53583997       5.41527997       8.38477017       1.04641610      -0.15514551      -0.29540253
S        9.87531017      -0.53788630      -1.67371010      -0.05430530       0.02511119       0.89879236
S        9.30439951       2.67745039      -3.58155025      -0.24051616      -0.44757018      -0.17128792
S       15.30459997      12.11970046       3.97221992      -0.04248105       0.60004303      -0.70499289
S       -0.13437185       6.52681988       1.58544041       1.34693076       0.02468105       0.75858625
S        6.10307013       1.23111045      -3.41466058       1.22415647      -1.19770521      -0.60412722
S        0.60656021       2.99166938       7.44666957       0.19124431       0.07050505       0.88893424
S        9.66256023      -1.05036038       1.63622052      -0.86243799      -0.02445890      -0.21258009
S        6.54569004       3.94288956      -1.81514956       1.83438389       0.01174943      -1.26738854
S       12.78739968       7.17283001       4.82107952      -0.50244035       1.56025724       0.30615000
S        3.64725959       2.63678982       6.43477008      -0.07742851       0.41934641      -0.38380631
S       10.50200057       2.02672051       0.59235282      -0.11225668       0.40118620      -0.42867952
16
Lattice="5.078106202118504 0.0 0.0 0.0 5.181039414835446 0.0 0.0 0.0 9.455738434716782" Properties=species:S:1:pos:R:3:forces:R:3 energy=-3874.025931561945 stress="-0.021525287130735947 0.004172108203466309 0.008256991433488669 0.004172108203466309 -0.038881220530851184 0.0010411907356361783 0.008256991433488669 0.0010411907356361783 -0.013312367262776851" free_energy=-3874.025931561945 pbc="T T T"
Li       1.98550652       3.74935218       7.26084332       0.36279037       0.14583837      -0.34035544
Li      -0.58120297       0.80651549       6.94197786       0.80916756       0.08639909      -0.11865667
Li      -0.50438747       1.17641998       2.39233087       0.05986942      -0.20902117      -0.25131068
Li       2.00554066       3.64382913       2.23119951      -0.11633290      -0.09036785       0.67841771
Li       1.96755744       1.55262082       0.07588773       0.04036992      -0.02672507      -0.12301752
Li       4.72772601       4.23025036       4.50146388       0.13862437      -0.07773319       0.01783034
P        5.05108306       4.08126481      -0.09498801       0.78512466       2.87520270      -0.40834620
P        1.90785872       1.90405826       4.85804850      -2.50860736      -2.08736399       1.02250407
S        4.66935420       3.49284027       7.43415096      -0.19361744      -0.11964680       0.09708203
S        2.35693850       1.26554887       6.84642821      -1.40394805      -0.46388743      -1.04912296
S        2.14830146       0.97980180       3.03294057       0.31595644       0.25315879      -0.73788450
S        4.37647646       3.43670333       1.73257316       0.78032981       0.35594429       0.62779474
S        2.08516486       4.29517293       0.08496586      -1.80892688      -0.65848883      -0.20079570
S        4.67692413       1.69709903       4.71561879       2.37193034      -0.17209422       0.15832056
S        4.50323056       1.06969342      -0.23973028       0.58501801      -1.72168190       0.95443155
S        2.29908262       3.79354592       4.77740614      -0.21774853       1.91046720      -0.32689160
32
Lattice="6.268909969836019 0.0 0.0 -0.5705397652647459 12.524799413664688 0.0 -3.13445498491801e-05 0.0 8.495557833112105" Properties=species:S:1:pos:R:3:forces:R:3 energy=-7749.820391506643 stress="0.0005334495744308814 -0.0025864500020168556 0.0009668199688050227 -0.0025864500020168556 0.010266838453160268 -0.005597088822255857 0.0009668199688050227 -0.005597088822255857 0.009443251072326362" free_energy=-7749.820391506643 pbc="T T T"
Li       3.61127768      11.03932979       4.24967025      -0.53509310       0.21077698      -0.04553398
Li       5.29844008       5.68825971       0.54408120       0.18897968      -0.20507350       0.15664780
Li       5.40080009       3.80787007       3.99904988       0.07603858       0.07436350      -0.09219076
Li      -0.35961978      10.38280001       3.21992029      -1.67234140      -1.17640414      -1.83344544
Li       2.37228028       0.36549375       0.92643080      -0.62269753      -0.34924991       0.01254544
Li       5.61157903       8.53490026       7.84162715       0.24928542       0.68614850       0.29433372
Li       1.53625970       1.33555992       4.00209971      -0.10720292      -0.16044455       0.33776942
Li       3.58989004       7.08494025       6.11363973      -0.29930572       0.13182714      -0.43680240
Li       4.55018988       0.20733605       7.65783023       0.36788655      -0.94972257      -0.51064757
Li       2.34333108       6.85209977       0.33642983      -0.65101026      -0.45180479       0.07182222
Li       0.47623655       2.53050005       8.11488078      -0.08273733      -0.12723181       0.34334357
Li       0.48212995       7.42286020       4.20988022       0.10739087      -0.13872541       0.23761338
P        0.66220189       5.28278974       6.54369009       1.26212729       2.28198647      -2.03511197
P        0.24116810      11.52089993       6.33808990      -1.49049370       0.30029379       0.33545209
P        4.62764979       1.26461969       1.91927004       1.09139113      -0.91453548      -0.19208069
P        4.26768020       7.68150978       2.26136007       0.94117802       0.82954252       0.06029983
S        0.40061971       1.02728001       6.28988010       0.14545759       0.12464348      -0.24214444
S        1.17204983       7.47143986       6.70681966      -0.40593168      -1.13140135      -0.21698594
S        0.23351000       2.02541021       2.08900015       1.31535298       0.46247564      -0.67265792
S        0.09556201       7.88852988       1.87560019      -0.52280940      -0.24757847      -0.12836130
S        4.91229967       5.08973992       6.62096004      -0.24871566      -0.31087208       0.56372208
S        4.51637977      10.67009977       6.44600981       1.27351702       0.16906983       0.23627487
S        3.70633003       5.71153993       2.42751001       0.14230388       0.56437411      -0.61310140
S        4.12854989      11.70270020       1.74282029      -0.52120118       0.59884001      -0.07395804
S        3.92095995       1.77936991       3.69395018      -1.23950415       0.39829473       0.96402742
S        4.17941018       8.66644017       4.19795989       0.03938236      -0.38619461      -1.06330182
S        1.36178027       4.93583003       4.58092008      -0.77455254      -0.16332419       1.04675035
S        0.99875772      11.07450026       4.47599984       2.17735465       0.83135207       1.43288171
S        3.81810971       2.01562005       0.17120017      -0.18802889       0.66284351       0.80811598
S        3.49457001       8.77210014       0.56190121       0.35863187      -0.91856131       1.33869963
S        1.79642009       4.50343008       7.99287024      -0.38857648      -0.30197709       0.40565812
S        1.33041001      11.04159976       7.96980003       0.01392381      -0.39373154      -0.48963394
32
Lattice="6.350444006567508 0.0 0.0 0.0 8.312159664636276 0.0 0.0 0.0 13.47494363309553" Properties=species:S:1:pos:R:3:forces:R:3 energy=-7747.66763960822 stress="0.008822576524451531 0.005707267736079792 0.0006592371677132063 0.005707267736079792 0.008990599368033031 -0.00348257183445152 0.0006592371677132063 -0.00348257183445152 0.010864559060655112" free_energy=-7747.66763960822 pbc="T T T"
Li       0.60525891       1.14042988       8.45178370      -0.08176905      -0.02655821      -0.08208195
Li       5.41404564       6.43525355       6.31830314       0.38679007       0.01007641      -0.17519600
Li       8.02214314       8.50493438      16.02685305      -0.19354570      -0.10180360      -0.50498394
Li      -0.44611742      -4.37811993       3.78629983      -0.19616283      -0.50285558       0.31986117
Li       3.30480472      10.76868795      13.82924189      -0.37955139       0.20500408       0.17423955
Li      -2.87360004      -0.12176151       4.80747853       0.54553153      -0.73633746       0.01302752
Li       2.02233509       3.81566873      -4.13858182      -0.19466439       0.42465368      -0.04753713
Li       8.20309587       7.34238273      10.78127707       0.33664585      -0.19049252      -0.21108808
Li       6.62042297      -3.58123764      -0.34529142       0.06985507      -0.61467698      -0.94971666
Li       2.57404389       4.78623566       3.47953020       0.49322398      -0.03882803       0.01044074
Li       4.16287354       2.43393023      -5.50231363      -0.05784519      -0.31947294      -0.39111827
Li      -1.67354203       0.24961690      12.08759960       0.16353733      -0.08835210      -0.24607668
P        1.65823429       2.08919384      11.27473070      -0.97259150       0.97114603       0.02279026
P        4.79558351       6.53339014       1.76933658      -0.24808574      -1.39554209       1.29784531
P        4.34596065       6.14967154       8.81742385      -0.96450487       1.78833697       0.76070844
P        1.65236902       1.80698582       4.94410516       2.65364149       1.06583025       0.30970994
S        6.35140483       2.86674220      10.25933027      -0.11903668      -0.68936495       0.50412057
S        0.34452810       6.40376170       1.03483343      -0.21803443       0.49647282       0.68115208
S        2.28609888       6.08862727       8.60314018       0.12531505      -0.47132023       0.01546313
S        1.46681222       2.66795806       3.06167797      -0.43906009      -0.02057525      -0.51980121
S        2.48406889       3.89711127      -1.47042054      -0.06142828      -1.33226981       0.20488350
S        4.11913803       8.40837016      15.22402166      -0.39470367       0.88932067      -0.21242840
S        5.27675221       4.56991922       7.88491322      -0.17139539       0.89452484       0.18673948
S        1.10985757      -0.12163704       4.87042477      -0.26330642      -0.45926870      -0.09056428
S        1.36183240       0.61764545      12.75220405       0.24182974       0.66494770      -0.70798128
S        4.90857824       6.01003989       3.91748667      -0.47326836       0.25643052      -0.27734567
S        4.80789957       8.03193235       7.89373018       0.40177858      -0.74111766      -0.51678428
S        1.03626863       3.08739917       6.32442751      -1.35171224       0.15840669       0.64237367
S        3.39572530       5.07812366       1.21928398       0.93965464       0.70818594      -0.28061020
S        2.74740593       1.26436197       9.72945684       0.43650081      -0.14699305       0.26861240
S        3.79446332       1.99018025       5.31558391      -0.46115949       0.18243365      -0.29119620
S        4.64753879       6.58149221      10.84050893       0.44752185      -0.83994135       0.09254326
32
Lattice="14.511000038864474 0.0 0.0 0.0 7.768434848806018 0.0 0.0 0.0 9.162898419540777" Properties=species:S:1:pos:R:3:forces:R:3 energy=-7739.333651793587 stress="0.008686689197402012 0.0009053034085866594 0.004116100588939142 0.0009053034085866594 0.013106699956972173 0.001532405059767885 0.004116100588939142 0.001532405059767885 0.011896568220139295" free_energy=-7739.333651793587 pbc="T T T"
Li       7.36023026       9.10663057       8.81056989      -0.07329572       0.01207467       0.31125441
Li       9.45298057      12.14020011       1.94877942       0.91172629      -0.06190728       0.65936069
Li      -0.67495450       0.25093727       7.21627969      -0.08071490       0.06095803      -0.35403293
Li       5.87490026       4.71781053       7.72491056      -0.03342331      -1.04897075      -0.70338029
Li      -0.43069519       1.98510045       2.83762025       0.57667916       1.42710161      -0.25935283
Li       3.31612048       5.14226018       1.72734011      -1.52339893      -0.34181840       1.07070326
Li       3.36302003       6.47761029      -1.85141061      -0.65029935      -0.73418031       0.43704023
Li       9.33044968       6.29017025      -2.13409069      -0.28129514       0.11386310       0.17838879
Li       4.70282937       7.73396977      -3.68052071       0.42574820      -0.79417289       1.32115802
Li      11.96359979       3.61169939      -1.63052997       0.61714421      -0.09643000       0.52236074
Li      12.69730062       7.73580977       2.56910000      -0.17305170      -0.85236621       0.01505715
Li      16.77700008       2.71195064       7.61912972       0.33670833       0.06886160       0.04331049
P       14.31819964       4.69067931       0.51542637       1.66271519      -1.95008739      -1.85914644
P        6.64158024       6.54379932       0.10776014       0.96903387      -2.18171782       1.82921803
P        3.43514986       2.08266951       4.72453057       0.63276880       0.62161741      -1.39091205
P       11.59829987       1.75856052       4.68359069       2.56289157      -0.79160718      -7.02857920
S        7.08675015       7.63081978      10.86759992       0.15822620       1.31078722      -1.28555878
S       12.60930011       5.58860984       9.41035015      -2.70943057       1.29325255      -1.77210534
S        4.29958029       3.81593011       5.98360071      -0.52015988      -0.81384388      -0.66752009
S       10.98200029       1.57755031       6.44489960      -1.39639672       0.19313201       4.03161497
S        2.79900938       0.91688044       6.36466973      -0.41065685      -0.67565789       0.00227054
S       10.50869935       0.40475242       3.27147013       0.54568734       1.13622602       1.39227627
S        4.86780058       5.58477023       0.36080876      -0.42862578       0.53484962      -1.25549410
S       14.96609983       5.71961950       2.03430000       1.58472977       0.14829532       1.12791108
S        1.28346022       4.62434953      -1.28802974      -1.17376953       1.32478199       1.53587521
S        7.96628943       4.79555031       0.35743350      -0.31681956       0.27051888      -1.57675472
S        4.75223062       0.77384551       3.64682037      -0.29539019       1.74935648      -0.51766797
S       13.72780074       0.77875168       4.61043058      -1.75037104       0.21704250       1.09335725
S        6.77107060       6.84968975      -1.96708069       0.46193056       1.09204779       0.26282254
S       13.69080059       2.63512070       0.52265139       0.54375207       0.06033916      -0.30151687
S        2.13476981       2.72160045       3.23476020       0.78656165       0.04056687       1.35296925
S       11.98759953       3.56579965       3.45658986      -0.95920377      -1.33291310       1.78507347
32
Lattice="6.230400156852507 0.0 0.0 -0.5670349486753035 12.44790338538033 0.0 -3.1152000784262537e-05 0.0 8.443382218965107" Properties=species:S:1:pos:R:3:forces:R:3 energy=-7750.941271810222 stress="-0.0003039101706310185 0.002253158787699454 -0.0018188702357101137 0.002253158787699454 -0.0033347484584044084 -0.007589490847238667 -0.0018188702357101137 -0.007589490847238667 0.007744659484207376" free_energy=-7750.941271810222 pbc="T T T"
Li       3.17875888       0.24621295       4.57636038      -0.23199758      -0.54113365       0.20059695
Li       5.35993039       4.56047036       0.59475898      -0.16710834      -0.81449514      -0.20904277
Li       4.45722017       4.65993995       4.21182029       0.11530138      -0.39965716      -0.39845106
Li       5.24287986      10.20950004       3.84183981       0.40556478       0.59423593       0.10197021
Li       2.51356024       0.29347178       0.63311831       0.07425063       0.50866345       0.25267388
Li       0.33639924       8.54667042       8.10354193       0.06894722       0.20166499       0.19426150
Li       0.33451891       2.27139019       4.16772027       0.23066421       0.23911645       0.39322195
Li       1.49747979       6.69667022       3.75234011       0.26694864       0.30060490       0.38752335
Li       4.55269420      10.87202024       0.26747980       0.07264446      -0.18699659      -0.18822866
Li       2.91580983       6.51072019       8.30671029      -0.45111496      -0.60484225      -0.06969926
Li       6.02591406       2.07034017       7.60020908       0.34589694      -0.14653385       0.02509628
Li       4.60537037       7.55766043       5.91884027       0.16437782       0.14138625       0.02844849
P        0.15651014       5.10953995       6.48319989       2.63426128       2.53303181      -2.72465870
P        0.25525576      11.42010044       6.18893996      -0.66314201       2.47032877       0.52934103
P        4.94002011       1.48077983       2.25259993       0.67381235       0.21663113      -0.66462554
P        4.86933996       7.56362043       2.11215986      -0.78898903       1.23075957      -0.72565119
S        1.28284002       1.12023031       5.87060016      -0.42928810      -0.98782503       1.43756137
S        0.80382318       7.26381046       6.15546028      -0.22367029      -1.06329205       0.76655410
S        0.79498224       1.89398994       2.00760004      -1.22918940      -0.47376175      -0.32800977
S        0.58585013       8.12583991       2.18620006      -0.09309836      -0.29572366      -0.35751858
S        4.44570016       4.96054990       6.56462997      -2.10582168       0.07348007       0.27623290
S        4.45541024      11.00739998       6.13349002       0.54386108      -0.00725282      -0.19424273
S        4.12390996       5.68436041       1.90346014      -0.57797859      -0.33199190       1.19888998
S        3.79418036      11.94590011       2.39129985       0.09688559      -0.26582687      -0.81387962
S        4.24187013       2.07414009       4.11965024       0.48890581       1.59800001      -0.86798540
S        3.86452034       8.43751007       3.71341008      -0.28160290      -0.80800182      -0.57723220