32
Lattice="12.340888758292103 0.0 0.0 0.0 6.606670114974161 0.0 0.0 0.0 7.7925554793134815" Properties=species:S:1:pos:R:3:forces:R:3 energy=-7752.384537215409 stress="0.0023155935055330173 0.0029950301407806116 0.001534241374998284 0.0029950301407806116 -0.005991896596791621 0.0018647781164700865 0.001534241374998284 0.0018647781164700865 0.004713821196433985" free_energy=-7752.384537215409 pbc="T T T"
Li       3.32464037       5.24441000       5.72997955      -0.17012681      -0.40410543       0.53935574
Li       9.45191015       5.17709045       6.06732021      -0.26235357       0.32574309      -0.70992066
Li       0.29388469       1.34603061       5.72393004      -0.25515139      -0.05952232      -0.02098072
Li       6.12048970       1.43661026       6.04858057      -0.19514339      -0.12951444      -0.12431258
Li      -0.03126317       1.10860055       1.59979013       0.06031165       0.67907308       0.34520865
Li       5.95919058       1.11946053       1.60892980       0.12687083       0.39261954       0.05764645
Li       3.30609942       5.21018995       2.36760938      -0.14550567       0.29255194      -0.65499059
Li       8.88679987       5.36809039       2.14189946       0.13768180       0.13693361      -0.12337978
Li       2.89377058       2.59091036      -0.42441057      -0.77026548      -0.11141258       0.06132441
Li       9.43285952       2.18024014      -0.29749440      -0.06666202       0.03181637       0.11171829
Li       6.05878032       3.96580014       4.47774957       0.30630503       0.37598296      -0.10819536
Li      12.46169989       4.24776970       4.02648029      -0.29417945       0.01312342      -0.07685387
P       12.33819968       4.74788051       0.01175470      -0.22564953      -0.44041223      -0.51153434
P        6.19905056       4.65591991       0.17827895      -0.08546553      -1.98027214      -1.43732457
P        3.21664031       1.88201022       3.84778052      -0.10568082      -1.69731118      -0.97951883
P        9.13937961       2.04013032       3.82907049       1.08624121      -0.37545331      -0.23990784
S        5.51692027       5.61422942       6.27734980       0.51586382       0.45793378       0.26784647
S       11.66550030       5.74370015       6.15032009       0.10058695       0.05436392      -0.49766993
S        2.61339052       0.72100655       5.43999951      -0.28435398       1.11696306       0.24757769
S        8.43324012       1.02591042       5.47253997       0.18356571      -0.44954119      -0.00460870
S        2.39238001       0.99191004       2.14201053       0.65885367       0.26103819       0.43555979
S        8.50331046       1.31842034       2.00001009       0.00707979      -0.37198901       0.38807357
S        5.77214960       5.41285943       1.95103034      -0.20000817       0.54482396       0.78251293
S       11.57569936       5.58627977       1.65565981      -0.61336803      -0.40169090       0.90503191
S        1.98909951       4.89082996       0.04129632       1.40780702      -0.06065541       0.12222382
S        8.27506942       4.37933962      -0.00178202      -1.03240231       0.02353151       0.78752838
S        5.24571937       1.94875962       3.71134952       0.36707460      -0.54191501       0.30328630
S       11.25840030       1.96730057       3.80620036      -0.35580571       0.01694537      -0.21245000
S        5.03957963       2.81714970       0.05734317       1.78767054       0.26721552      -0.01841398
S       11.83509990       2.75747040      -0.20188090      -0.16762513      -0.36782202       0.01035126
S        2.65285051       3.76840022       4.08312990      -1.16666043       1.36311122       0.26597959
S        8.54591984       3.94046059       4.07588950      -0.34950471       1.03784687       0.08883753
32
Lattice="6.332928240971006 0.0 0.0 0.0 8.289169774606949 0.0 0.0 0.0 13.437713775951558" Properties=species:S:1:pos:R:3:forces:R:3 energy=-7748.971857018766 stress="-0.0017022642185797834 0.003949914060588041 -0.0021797061784834984 0.003949914060588041 -0.006908217896760675 0.002734273378063967 -0.0021797061784834984 0.002734273378063967 0.005113219759045746" free_energy=-7748.971857018766 pbc="T T T"
Li      23.66160009      12.27229982       4.57087012       0.01900277       0.79588036       0.19416765
Li      -0.56491303       7.84188012      10.54339965      -0.17095651       0.83275100      -0.10684322
Li     -10.47239992      -0.04106334      13.46040022      -0.13292012      -0.25115410      -0.33085830
Li      -2.50102979       9.20303982      19.37740010       0.10841314      -0.36833213       0.21406568
Li       1.88687000      -2.02124018       3.33408027       0.11191806      -0.14250211      -0.01173991
Li      -7.14757016      -6.15993987      13.93720006      -0.16083716       0.30311532      -0.44420512
Li      -1.99870002      12.34029964      -1.86631015       0.25269856       0.57964415      -0.00614854
Li      -4.28212026     -12.20680025      14.22410007      -0.51451014      -0.73267338      -0.03345417
Li     -12.03850014      16.80859975       6.80127995       0.06070323       0.03488961       0.11300873
Li       7.28572996     -11.85629990      21.69929985       1.10938936      -0.61633097      -0.17075802
Li      -6.53100007       0.16610891       2.90210996       0.15801794       0.26677895       0.36112121
Li      -8.54751968      11.64389982       8.11795969      -0.49911951      -0.03643613       0.19846757
P        2.61074017       2.05094984      11.14779975       0.93745969      -2.54675996       1.88922295
P        5.14525974       6.28559974       1.31005993       0.71942012       0.64240941      -2.86656225
P        5.35107991       6.18274981       7.66926983      -1.91329130       2.99155695      -0.66223673
P        1.71150995       2.16912988       4.39877976      -0.37073816      -0.57548308       2.71424882
S        8.10406968       0.27822897      10.74619964       0.03415119      -0.49536442      -0.18766122
S       -3.21988997       6.25853977       1.08327017       0.10015758       0.89479455       0.13400615
S        3.82744007       5.31874018       6.60690022      -0.13661454      -0.67937956       0.99291145
S        1.99528974       2.29384994       6.54969994       0.21787837       0.33285090      -0.61144767
S        2.13478008       3.58271989      -3.34844968      -0.22098066       1.97767044      -0.88782892
S        5.77122980       6.13704000      16.55900005       0.24374161      -0.47671184       3.02389011
S        6.88583024       6.04283010       6.42090971       1.14503976       0.18317362      -0.27213970
S        2.43682023       0.33729492       4.01683009       0.22250918      -1.03226681      -0.50333407
S        2.24513009       2.24505029      13.27950013       0.16525303       0.62270113      -0.48390913
S        6.09997021       8.12331988       0.60027294      -0.74422484      -0.86394928       0.06715053
S        4.83526987       8.34990002       8.01123972       0.52478401      -1.27783879      -0.54958101
S        2.72645987       3.41552996       3.29117974       0.33845822       1.63504086      -0.86264393
S        5.99354978       4.79740023       0.17318026      -0.29009448      -0.30213907      -0.36587055
S        4.70911984       1.86656030      11.05949973      -0.23371019       0.02677135       0.07845310
S       -0.30917482       2.19187016       4.31628007      -0.60294143      -0.58765520      -0.78654211
S        5.80191981       5.71618969       9.60137974      -0.47805704      -1.13505180       0.16305036
64
Lattice="12.05079381267269 0.0 0.0 0.0 7.886702264672706 0.0 0.0 0.0 12.785169187616964" Properties=species:S:1:pos:R:3:forces:R:3 energy=-15502.143336707071 stress="-9.181576151994517e-07 0.004782683017573943 -0.0017830620887173353 0.004782683017573943 -0.007325979611676425 -0.010825078283201535 -0.0017830620887173353 -0.010825078283201535 -0.009332154000887227" free_energy=-15502.143336707071 pbc="T T T"
Li       5.29475848      -0.07277233      10.69173662       0.18925968      -1.21381317      -0.40018141
Li       9.83474683       1.28499061       7.47959271       0.00649281       0.18239432      -0.01691195
Li       4.91984865       7.79935088       4.51915132       0.65847829      -0.44173018       0.37514966
Li      10.64885869       7.66183204       4.26557972       0.09890005      -0.35927747       0.02387784
Li       4.70574460       8.86221523      13.61966015      -0.14656882       0.01737294       0.16212348
Li      10.35357929       8.80979307      11.93126560      -0.03916484       0.48884950       0.01325018
Li       1.00174995       0.37984946       1.95246720       0.06691810      -0.06266447       0.24010067
Li       8.12322199       0.41761664       2.41075889      -0.30390259       0.12456223      -0.81443524
Li       2.27271946       5.42293193       5.35942786       0.24934070       0.12860092       0.02324457
Li      11.54294444       3.15964463       2.38883488       0.11548470       0.27103438      -0.05584616
Li       2.01208007       2.85238192       9.10913720       0.07311986       0.18629211      -0.11369392
Li       8.34251872       4.77952800       4.70740038       0.54738066       0.17843250      -1.25086997
Li       2.54334534       4.72168660       0.75465807       0.02215365      -0.31571810       0.11312982
Li       5.01442328       3.68593774       3.99213154      -0.19478318       0.01906396       0.08133119
Li       7.13854681       3.23081421       8.60351120       0.41009250       0.22218728       0.05345246
Li      10.31328144       4.57062508      10.69609298       0.01461492      -0.29858272       0.13494846
Li       1.21073482      -1.16601553      -1.23073191      -0.16681214       0.00222426       0.27584415
Li       8.30490217      -0.97583834      11.07040389      -0.04504367      -0.47623464       0.10421530
Li       0.78191214      -0.68909211       7.04459882       0.03236505       0.16045252      -0.02317335
Li       7.47495677      -0.74885922       6.96982123      -0.21662573      -0.43347848       0.08488523
Li       4.68810827       4.21603890      -1.89370994      -0.16670082       0.33452829       0.23925375
Li       7.75097779       4.73660428       1.41135643      -0.02514410      -0.28335048      -0.30077562
Li      -0.28690771       3.60722316       6.42780665       0.20450837      -0.34442267       0.00541320
Li       4.68375672       1.36598761       7.57046895      -0.10861702       0.10202806      -0.46878950
P        0.91243308       2.69852703      11.98785734      -0.13565963      -0.85458790       0.93409361
P        6.96627468       2.47020787      11.49963991       0.24794896       0.28690683       1.47113381
P        5.19863653       6.05379340       0.98817473      -1.02459721       0.68791562      -0.03662896
P       10.90053590       6.48165201       1.42976764      -1.57013542      -1.47643568       0.09162640
P        4.26742349       5.37079899       7.57229585      -0.15717899       0.84810563      -0.33765398
P        9.69265953       5.30731661       7.41282167       0.97410871      -0.81945917       0.04385531
P        1.90037885       1.75954725       5.12764289       0.94399492       0.27949177       1.42006527
P        8.20182932       1.53738123       5.00140962       0.40182846      -0.66374314      -0.06049034
S        4.98353950       1.89136124      11.45577141      -0.65072513       1.25026165       0.00218287
S       11.04418136       3.09689373      12.64457619       0.36814546       0.05246747      -0.30400852
S        0.63930907       5.95622053       2.00161275       2.04512487      -0.54358160      -0.36379387
S        6.95184868       6.98299637       0.40404384      -0.31997944      -0.27735287       0.52007632
S        2.22044914       5.38010582       7.80814434       0.01446580       0.31819021      -0.00265466
S        7.89356519       4.70056517       6.75664631      -0.54411382       0.52432147       0.57386046
S        4.00417751       1.80585845       5.18661104      -0.48578295       0.92480755       0.32497767
S       10.20926622       1.94646591       4.99807878      -0.05270222       0.08055523       0.28169726
S        2.05089086       2.12331251       0.93452219      -0.33351939       0.99086459      -0.84705945
S        7.64150717       2.36062397       0.62245965       0.47525428      -0.18404831       0.01064257
S        3.75201345       6.34481766      12.25879654       1.03240359       0.28976615      -0.40197887
S       10.60548547       6.51119092      12.15558631      -0.02944350      -0.38745393      -0.44399558
S        4.67805670       5.58593097       5.56707027      -0.08772475      -0.54618664      -0.36125568
S       11.14637210       5.80716065       5.92113946      -0.98127181      -0.01532815       0.64652677
S        1.17801571       1.70135999       7.13683680       0.13352716      -0.43348774      -0.58583434
S        7.45139264       1.54500094       6.82625531      -0.57170150       0.22117915       1.89165598
S        0.88935581       1.08782395      10.69575917       0.02864646       0.41964954      -0.32474061
S        7.84693344       1.14947943      10.28072381       0.69190854      -0.40022152      -1.06646274
S        4.30634755       6.98100678       2.57109832      -0.15014857       0.44093442      -0.70579250
S       10.52172884       8.38583530       1.89120458      -0.21517485       0.64263798       0.53433797
S        5.35841078       7.03525102       8.24949985      -0.36426901      -0.40652175       0.82318573
S        9.48547867       6.90512414       8.62511586       0.17328284       0.46683134       0.59832784
S        1.55212899      -0.06473084       4.26701858      -0.90003292       0.51100855       0.04245740
S        7.78375474      -0.45479575       4.50597739       0.18316642       0.41199948      -0.37871013
S        5.12059921       4.10417741       1.39865851       0.27948920      -0.37199723       0.25230904
S        9.83859224       5.05412221       2.57727797      -0.43369728       0.44659085      -0.68996967
S        1.67711741       4.32139779      10.99881495       0.00065872      -0.40066503       0.09995395
S        7.25680125       4.39372424      10.88893219      -0.11395206      -0.10753845      -0.48242997
S        1.16727484       3.57679611       4.41939726      -0.03206191      -1.20915742      -0.61047939
S        7.29124121       2.80911114       3.78663658      -0.43621002       0.43976303      -1.07254957
S        4.75238720       3.64413595       8.56828070      -0.02200556      -0.25680153      -0.05809099
S       10.34938923       3.59699686       8.44749680       0.34238609       0.63156887       0.08607153
32
Lattice="6.339079926018115 0.0 0.0 -0.5769260031468346 12.664999922109818 0.0 -3.169539963009058e-05 0.0 8.590657724940488" Properties=species:S:1:pos:R:3:forces:R:3 energy=-7749.804812717265 stress="0.0049369334969274516 -0.006518919067916107 0.00046734222613652095 -0.006518919067916107 0.013490489840125543 -0.0007336079345443619 0.00046734222613652095 -0.0007336079345443619 0.014003739947022038" free_energy=-7749.804812717265 pbc="T T T"
Li       4.13384017      12.31163108       5.06072966      -0.39464891       0.00564563       0.09131350
Li       1.49193986       5.39413991       2.14892971      -0.01498336       0.25070596       0.07675437
Li       4.12722977       4.55286983       4.06780978      -0.11730812      -0.21283849      -0.49858524
Li       0.16225002      12.10350007       1.77087015       0.15105591       0.14427951       0.34364645
Li       3.22091821       3.35165983       7.42445973       0.63376767      -0.19414837      -0.19352925
Li      -0.04780173       8.48977000       8.55684000       0.03867736       0.46053780      -0.63081939
Li       0.89831228       1.84462979       4.30682986       0.54141519       0.09601656       0.61757898
Li       5.63344017       8.25774002       5.20675987      -1.16199439      -0.13844465      -0.10789737
Li       3.80162357      11.31930961       0.42266006      -0.31544505      -0.36073683      -0.29636669
Li       3.35010992       6.38015019       7.65489986       0.47761558       0.44304787       0.28049373
Li       0.89669835       1.91178029       8.38113465      -0.16750891       0.09265947       0.33447867
Li       1.35138978       9.12407989       4.00608996       0.37210830       0.35656573      -0.09796057
P        0.82947685       5.63621986       6.16702969      -0.26945624      -1.94860412      -0.20688664
P        0.30530594      11.70649998       6.58665016       0.60815563      -0.04206659      -0.47972003
P        4.66262022       1.23039006       2.42326988       0.08861564      -0.21850829       0.78512672
P        4.52363019       7.65812962       2.06468968      -0.80312932      -1.20144231       0.87568945
S        0.15415375       1.00882971       6.34933022       0.07543540      -0.37632260       1.03203207
S        1.23396974       7.57368991       6.16779989       1.19581802       1.21269012       0.57592119
S        0.36106322       1.85872029       2.17755002      -1.08186956      -0.13858940      -1.26458783
S        0.23631773       8.00619012       2.16516029       0.02424396      -0.06393819       0.79648302
S        5.16040979       5.56986998       5.85161989      -0.61741546       0.01201991       0.87226372
S        5.08706980      10.46750018       6.29387975      -0.92142527      -0.32732740       0.50707991
S        4.41921984       5.57190989       1.65373030      -0.38677208       0.49876470       0.42085796
S        4.32189024      11.79470003       2.72978975      -0.30024109       0.62861235      -0.81034564
S        3.97150013       1.90920029       4.24920001       0.02644251       0.39262725      -0.58663755
S        3.43170022       8.07486961       3.85968003       1.46342435      -0.37055844      -1.14153587
S        1.65057977       4.37188973       4.73204012       0.28498082       0.46584378      -0.00821210
S        1.42534022      11.49240009       4.88828006       0.77722083      -0.18257429       0.15375068
S        3.29120022       1.69412989       0.96837116       0.79631641       0.03067018      -0.23140391
S        3.78977012       8.55752969       0.40111416       0.04295156       0.33119177      -0.26922587
S        1.61967993       4.83599977       7.99330974      -0.79453438       0.21233713      -0.16871707
S        1.19704016      11.18610018       8.43000008      -0.25151277       0.14188427      -0.77103964
32
Lattice="6.350444006567508 0.0 0.0 0.0 8.312159664636276 0.0 0.0 0.0 13.47494363309553" Properties=species:S:1:pos:R:3:forces:R:3 energy=-7751.150442316573 stress="0.013969768115259658 3.672630460797807e-06 0.0009218302456602495 3.672630460797807e-06 0.02017651359400795 -0.0026874473396887952 0.0009218302456602495 -0.0026874473396887952 0.02032800960051586" free_energy=-7751.150442316573 pbc="T T T"
Li       3.65814406       1.16777616       8.44621817      -0.12918816      -0.12241176      -0.44391407
Li       4.65530284       7.29699420       4.43300047      -0.05393069       0.76170037      -0.44991194
Li       9.72992677       9.11744359      12.98349039       0.24690946       0.15767933       0.08780009
Li       1.19322112       0.83107626       2.72043496      -0.09171613      -0.04394118      -0.47486733
Li       1.82575265       5.49365734       5.12324356       0.25607005      -0.33208420       0.50807852
Li       2.02519851       3.32391511       9.35452408      -0.05697873       0.32170877      -0.06495378
Li      -0.71589635       3.09845784       1.93273985       0.34661530      -0.25018325      -0.54845821
Li       4.97280663       4.79638812      10.79081353       0.13047963      -0.07511735       0.27944935
Li       6.89442368      -0.65034453      -1.37101577       0.35622506       0.21206562      -0.35854548
Li       0.06354000      -1.10931715       7.19860867       0.20489584      -0.00039389       0.06985867
Li       2.82669313       5.00982590       0.52649055      -0.02009343       0.31649380      -0.24479987
Li      -0.91606234       3.23912081       6.07292960      -0.06783136       0.04352723       0.21385382
P        1.09542174       2.97957689      12.27439791       0.39619568       0.09749160       0.52889032
P        5.57835829       6.92345092       1.12900607      -0.35152380       0.80800953      -0.74432871
P        3.91134706       5.55403609       8.00938701      -0.44285915      -2.29665641      -1.64896776
P        1.81310447       1.28176917       5.66656025       1.24294994      -0.08568947       0.30239721
S        5.43432895       2.78912834      12.28236962      -0.12187955       0.01002319       0.38859396
S        1.22100495       7.20624572       0.82019922       0.92941985      -0.66531048       0.52704915
S        1.92245340       5.24391724       7.73176083      -0.69270327       0.36123382      -0.17049525
S        3.94666823       1.31812483       5.78027701      -0.94654032      -0.19580905      -0.09143923
S        1.97324806       2.79460814       0.78625165      -0.65786791      -0.22479618      -0.81356749
S        4.80759665       6.88449412      12.60378972      -0.69038182      -0.04507941       1.06831008
S        4.71725269       5.64931054       6.03022604       0.20567617      -0.15458398       0.55419512
S        1.13066099       1.16870015       7.61727249       0.00187896       0.35162638      -0.37665581
S        1.93821393       1.54396885      11.02201542      -0.02561359      -0.71122936       0.50386680
S        5.11170735       8.71791049       2.09448820      -0.75847698      -0.60642451       0.18372820
S        4.45029908       6.99881354       9.21011245       0.62943794       0.88646341       0.63052191
S        1.33878092      -0.47917529       4.69437141      -0.26857538      -0.06729554      -0.02791318
S        4.81473772       5.33354296       2.26145789       0.21791719       0.76775274      -0.14805235
S        1.67643212       4.76707891      11.47548030       0.05598654      -0.01183736      -0.01533226
S        1.04430130       2.81250941       4.43931599       0.14813025      -0.22885055       0.55285171
S        4.60274657       3.62541895       8.64348773       0.00737238       1.02191786       0.22275806
32
Lattice="5.806810206058956 0.0 0.0 -0.5284836036636317 11.60160031499137 0.0 -2.9034051030294784e-05 0.0 7.869342736769449" Properties=species:S:1:pos:R:3:forces:R:3 energy=-7748.771150613366 stress="-0.029592219937878327 -0.013466617742130359 -0.002242140896317061 -0.013466617742130359 -0.0490617521681827 0.006811811347164733 -0.002242140896317061 0.006811811347164733 -0.02552110907208396" free_energy=-7748.771150613366 pbc="T T T"
Li       0.50813422      11.24273828       0.85597609      -0.13469032      -0.47474906      -0.56488371
Li       0.41456096       7.46565039       7.66928245       0.47143156       0.58187047       0.04060852
Li       2.49752997       5.51557022       3.42130986       0.29886349       0.82284506       0.07770157
Li       2.24078999       8.78054043       1.94869989       0.59171574       1.27993655       0.15725767
Li       2.36608992       5.58746027       0.37814877       0.04336243      -0.19601319       0.03869305
Li       3.50860712       0.44339990       7.38108697      -0.12411641      -0.48248473      -0.34416247
Li       4.11719393      10.20187046       3.79786989       0.11259092      -0.11318793       0.94026040
Li       0.38518721       7.97286016       4.37728038       0.66366189      -0.03826521      -0.13198450
Li       4.43247004       3.51067028       3.83658041       0.44001088       0.81655151      -0.56645182
Li       4.18344034       7.00563024       6.11459031      -0.52971719      -0.02888069      -0.14765923
Li       4.85630215       2.93680994       7.28516253       0.21482621       0.05819461      -0.15076846
Li       1.45405721       1.12819993       3.92928033       0.54188313       0.16800077       1.10747055
P        0.67736093       4.54432024       5.65004027       2.04366603       0.06498540       0.48037077
P        0.54121620      10.49000031       5.81523995      -0.10354398       1.30681769       1.18576810
P        4.66802040       1.11786032       2.24005020      -2.35796257       0.58972185       2.22328433
P        4.72515999       6.67801001       2.01326988       0.38034560       0.54438533       1.04829789
S        1.18341979       0.86223118       6.42291045       0.83646419       0.08030815      -0.18266711
S        1.74457019       6.34735049       6.02611020      -1.47040593       0.94843059      -0.78543885
S        0.69544682       1.53863979       1.94968008       2.19869687       1.08939106      -1.08770159
S        1.09653017       7.01936044       2.07349985      -1.81259893      -1.55938949      -0.06191062
S        4.48251023       4.67033035       5.69309022      -0.69318381       0.72317727       0.36821694
S        4.37586003      10.23160016       6.24191043       0.07966743      -1.54879681      -0.63454672
S        4.14881027       4.67727007       1.84026003       0.45489294       1.11007508      -0.55425785
S        3.75632042      10.84510011       1.74571006      -0.13754656      -1.44531633      -1.28634502
S        3.99328996       1.51922995       4.20725988       0.09527068      -1.83885324      -0.64379652
S        3.97947033       7.64486016       3.78870035       0.04443843      -0.04916463      -0.78625723
S        1.43738993       3.72671033       3.95356034      -1.07665073      -0.36857895       0.60961679
S        0.93339712      10.30510044       3.80356985       0.19316827      -0.69113181       0.22533714
S        3.49476020       2.22065023       1.03780996      -1.01803112       0.14569233      -0.55956152
S        3.96299989       7.91002002       0.53003112       0.67397896      -0.91157923      -0.18134376
S        1.19901979       3.66076994       7.38605005       0.29104116      -0.43551094       0.44491166
S        1.84229996       9.52164039       7.15926043      -1.21152952      -0.14848069      -0.27805838
32
Lattice="12.217537551024892 0.0 0.0 0.0 6.540634292866074 0.0 0.0 0.0 7.714715216444463" Properties=species:S:1:pos:R:3:forces:R:3 energy=-7751.78245595909 stress="0.007567455064473881 0.0032365055935780675 0.0018188702357101137 0.0032365055935780675 -0.00022770308856946402 -0.002458826093504132 0.0018188702357101137 -0.002458826093504132 0.008743614969544377" free_energy=-7751.78245595909 pbc="T T T"
Li       2.91270982       5.13338044       6.11769002       0.05092378      -0.05547078      -0.19670739
Li       6.03212938       7.02239012       3.26691945       0.11761537      -0.44409045      -0.61559409
Li       0.01306910      -2.06833992       4.04549058      -0.20657811      -0.60054671      -0.39592238
Li       6.53013943       0.63247993       6.02949040      -0.38141981       1.02008749       0.44864490
Li       0.11881922       1.39153965       1.84407969       0.05959406      -0.09863626       0.46155467
Li       6.34785010       3.23043055       2.46691998       0.09595486       0.08287488       0.15959274
Li       2.77054045       5.31933014       2.31987947       0.37195404      -0.17553718      -0.16586315
Li       9.38200958       5.52900019      -2.07776941       0.16572714      -0.68890035       0.13242415
Li       3.40065017       2.10483004       0.01505934      -0.08067453      -0.01933110       0.11005427
Li       9.11944004      -1.11776052      -5.42213950      -0.23949337       0.04667606      -0.14545271
Li       8.66191036       9.44604047      -0.08981112       0.30248540      -0.76568095       0.07214773
Li      11.93800029       1.28062029       6.11305957       0.23287561       0.13878789      -0.40816854
P       12.08309943       4.51201970       0.25080283       1.07579533      -1.33406573      -0.83643539
P        6.28001956       4.53550058      -0.14686091      -0.14194572       0.17322859       1.41289009
P        3.23278976       2.01588026       4.09477979      -2.51160861      -0.49498338       0.63771097
P        9.03724044       2.05140030       3.99442005       1.12916757       1.16827662      -1.11447038
S        5.50830002       5.26814966       5.88578039      -0.72540410      -0.40469601      -0.40651918
S       11.75149958       5.39740998       6.05728041      -0.22553871       0.25506038       1.59124006
S        2.40218047       0.93105700       5.77832959       0.30988761       0.84297371      -0.77414476
S        8.68712003       1.09790946       5.77333017       0.08282937       0.44896732      -0.43954654
S        2.57661025       1.05387990       2.37215953       0.45156902       0.29174025       0.02522741
S        8.14960946       1.24229999       2.21963946       0.59661935       0.10342648       1.64158201
S        5.29466049       5.23975976       1.59450960       0.35440574       0.04885867      -0.44073645
S       11.45490053       5.53264957       1.89661999       0.16603747       0.59109045      -0.26541704
S        1.96422939       4.20928989       0.46887855      -0.88439290       0.40781270      -0.58483212
S        8.31271970       5.12496989       0.04762640      -0.92286894      -0.16776140      -0.07124938
S        5.16293955       2.30153972       4.43497957       0.94809198      -0.08076092      -0.23246835
S       11.14219999       2.20916048       3.87626058      -0.51096742      -0.57229234       0.15375017
S        5.99155005       2.47946006       0.10258578       0.12892385       0.36902967      -0.19821946
S       11.21169945       2.61035998       0.23442645      -0.19012228       0.74355352      -0.20168633
S        2.25461949       3.85682004       4.01015013       0.71591879      -0.25566638       0.79387849
S        8.34443032       4.02798041       4.09202963      -0.33536184      -0.57402475      -0.14726379
32