40
Lattice="7.781500047826824 0.0 0.0 0.0 8.045448529449109 0.0 0.0 0.06855501542135432 8.04516061394734" Properties=species:S:1:pos:R:3:forces:R:3 energy=-29614.940412155363 pbc="T T T"
Ba       3.95362999       0.08355386       8.00982327      -0.44044848       0.02567272       0.16003009
Ba       3.86103014       0.07518719       3.99090026       0.15270990       0.01688752       0.13879972
Ba       3.87653011       4.14010741       8.02887471      -0.01544693      -0.04757132       0.04803952
Ba       3.90701025       4.10782975       4.03992994      -0.38812885      -0.06763595      -0.22097603
Ba       0.01137967       0.10325428       8.02755108      -0.20431400       0.05863092       0.05061474
Ba       0.01787021       0.08765782       4.06556998      -0.21445160      -0.06581330      -0.36145185
Ba       7.74665216       4.16310797       8.03762501       0.26027663      -0.32025044      -0.06946786
Ba       0.02327836       4.07097968       3.99131969      -0.01199034       0.11498076       0.12953603
Ti       1.94873039       2.14220027       2.06428022      -0.34219815      -0.16908217      -0.10260681
Ti       1.92491978       2.14697967       6.14655008       0.22233846       0.02207755      -0.96055668
Ti       1.95557033       6.17028988       2.03187028       0.09525166      -0.34200943       0.20676940
Ti       1.91548005       6.15422031       6.09525988      -0.03849970       0.15278086      -0.24244731
Ti       5.80974030       2.14561013       2.06838963       0.48611513      -0.64564668       0.00950305
Ti       5.81590014       2.17100972       6.09128976      -0.09177784      -0.75425394      -0.50018292
Ti       5.87101028       6.12999027       2.05269980      -0.24037475       0.56144408       0.13372333
Ti       5.79862988       6.15609020       6.05134032       0.34387965       0.51124612      -0.11116422
O        1.93027034       2.01898022       3.90077026      -0.01901716       0.18603603      -0.10134543
O        1.93818024       2.07382968       7.94347042       0.22043250       0.06803550       0.45930007
O        1.92781995       6.03779973       3.89600020       0.19706117       0.24750802      -0.04094482
O        1.93511977       6.10288030       7.93518000      -0.07717012      -0.06461131       0.30805570
O        5.82295018       2.05057000       3.92630992       0.15077232      -0.01229373      -0.28187390
O        5.77325985       2.02726985       7.91904973       0.22461851       0.34163739       0.21286137
O        5.84774982       6.05866037       3.92758998      -0.10763101      -0.14732421      -0.21534763
O        5.88297978       6.08162981       7.90150012      -0.26020335      -0.04619964       0.28360219
O        1.96879966       3.99156014       1.92160019      -0.11844918      -0.11789999       0.09035499
O        1.86808993       4.06762041       5.99589013       0.31801744      -0.39037111      -0.00078007
O        1.92273007       8.00984039       1.92249040       0.20638939       0.03514878       0.08271650
O        1.97174029       8.07970036       6.02578042      -0.09072035      -0.29711231      -0.25109213
O        5.82290038       3.99587031       1.90434005       0.05340130       0.12045541       0.24241543
O        5.83936992       3.98350006       5.94746974       0.05180850       0.80068523       0.16047129
O        5.88253001       8.02004971       1.94522016      -0.25077640      -0.51528661       0.08385293
O        5.74486983       8.02306971       5.97001975       0.36512519      -0.07803607      -0.14015469
O        7.77678679       1.98334017       1.87971005       0.03823950       0.30673569       0.19878895
O        0.00225664       2.00132011       5.94752032      -0.28887424       0.08373132       0.14209433
O        0.00071590       5.99388016       1.90080025      -0.01744519       0.00601330       0.10213142
O        0.00584002       6.06504043       5.90838015      -0.30196090       0.09098311       0.15221239
O        3.90749970       1.98266007       1.93702002      -0.29300729       0.01277401      -0.08775998
O        3.86210010       2.06870012       5.87041033       0.05807068       0.04075713       0.45480861
O        3.90185967       5.98495012       1.89701999       0.03646441       0.33728811       0.07468181
O        3.86341984       6.01994041       5.98761995       0.33191425      -0.06011162      -0.23721101
40
Lattice="7.955160132292204 0.0 0.0 0.0 7.955160132292204 0.0 0.0 0.0 7.955160132292204" Properties=species:S:1:pos:R:3:forces:R:3 energy=-29607.738104026223 pbc="T T T"
Ba       4.08202018       4.07809988       7.87537624      -0.12540479      -1.44118971       1.19961426
Ba       3.82913996       7.75110709       3.93170982       0.44225700       3.15960553       2.47110190
Ba       7.87327528       3.81420017       3.98334040       0.29111855       0.72608519       0.12913160
Ba       0.16172204       7.89138998       4.03623983      -0.57229388       2.20946619       0.18773810
Ba       7.70825424       4.20625035       7.86591199       0.89649842      -3.83207680       2.67417637
Ba       3.89396020       7.87531658       0.07864710       0.05216537       0.63699929      -0.36596414
Ba       4.07671966       4.01286041       3.86922999       0.03043646      -0.30571162       0.74331569
Ba       0.14208314       0.01020806       0.01269087      -0.35671511       1.67339632      -0.29201356
Ti       5.97939986       1.83121979       1.93022017       0.65151651       4.06086435       1.35277796
Ti       2.05855997       5.82788985       2.12836968      -1.18775042      -1.65424263      -2.17282668
Ti       1.93416036       2.22267970       5.94572009       0.68244843      -2.92293909       0.90747883
Ti       5.83219996       6.07542978       6.03479004       0.96343401       0.75099609      -1.79631794
Ti       1.79377008       5.84853031       6.18382997       1.50793812       1.60556651      -0.81678445
Ti       5.90068991       1.93278014       5.82574037      -0.92713414      -0.65440129       1.62228433
Ti       6.35800979       6.11477998       2.19679997      -2.34361967      -0.66419848      -3.60768917
Ti       2.09673997       2.09211006       1.97166973      -0.85760329       1.00707823      -0.12845309
O        2.07494999       2.14217029       3.95787991      -0.34378452      -0.34077967       1.23452392
O        5.86988992       1.83375987       4.09075972      -0.08740105       1.09923299      -1.97156896
O        1.62592018       6.00490012       3.82277026       1.19961297      -1.20683134       2.17570606
O        6.21988992       5.97368010       3.86244026      -0.41628268       0.28575703       4.23727905
O        1.98407978       3.92239035       1.85503038      -0.17895624       3.88269642       1.21199463
O        2.18312028       3.95381005       5.94114031       0.00996534       1.58661053      -0.57779193
O        6.04341026       4.36576006       1.95848008      -0.75983915      -0.87842511      -0.56078434
O        5.87500031       3.77681012       5.91492010      -0.03899001       1.70406187       0.11913284
O        3.93417989       2.27778032       2.13083976       1.49155428      -1.31298808      -1.38649360
O        3.79793982       6.14403030       2.32655022       1.50144454      -1.37050700      -2.42219926
O        4.01853005       1.55953039       6.13609980      -0.29248587       1.73761219      -0.23956871
O        4.00883987       5.81617986       5.96575994       0.26461305       1.12083823      -0.49937200
O        6.08136989       6.24751023       7.75755555      -1.12401637      -0.30457879       1.63950070
O        2.09270988       5.74342992       0.04013537      -0.36084353       1.08210559      -0.48598529
O        6.03740013       2.01014009       0.19136217      -0.46060747      -0.18352534      -2.29421103
O        1.74586013       2.24295024       7.91688467       1.39299798      -1.00825399       0.08875371
O        6.06704026       7.93857760       5.67579037       0.11107217      -2.21375402       1.40667779
O        5.97627984       0.13578822       2.01226969      -0.20402089      -4.06858383       0.12622060
O        1.89335039       7.72056882       6.06229978       0.23064004      -0.33043458      -0.27587011
O        2.00253019       0.34610117       1.99003979      -0.26093123      -3.78453838      -0.49770695
O        7.94916035       5.69601000       6.13027026      -0.07228528       1.54119714      -1.97240971
O        0.10547110       2.07403992       5.98493983      -0.94587851      -0.46444382      -0.65673765
O        0.13770621       6.11192010       1.79696010       0.08514465       0.44809443       0.14244683
O        7.79845382       2.22107037       2.19197994       0.11198594      -1.37586081      -0.64910662
40
Lattice="7.953921732 0.0 0.0 0.0 7.953921732 0.0 0.0 0.0 7.953921732" Properties=species:S:1:pos:R:3:forces:R:3 energy=-29615.206038391934 pbc="T T T"
Ba       5.95804848       1.99587325       5.97283412       0.04863704      -0.04863704      -0.04863704
Ba       5.97283412       5.95804848       1.99587325      -0.04863704       0.04863704      -0.04863704
Ba       1.99587325       5.97283412       5.95804848      -0.04863704      -0.04863704       0.04863704
Ba       1.98108761       1.98108761       1.98108761       0.04863704       0.04863704       0.04863704
Ba       1.99587325       5.95804848       1.98108761      -0.04863704       0.04863704       0.04863704
Ba       1.98108761       1.99587325       5.95804848       0.04863704      -0.04863704       0.04863704
Ba       5.95804848       1.98108761       1.99587325       0.04863704       0.04863704      -0.04863704
Ba       5.97283412       5.97283412       5.97283412      -0.04863704      -0.04863704      -0.04863704
Ti       3.97696087       3.97696087       3.97696087       0.00000000       0.00000000       0.00000000
Ti       0.00000000       3.97696087       0.00000000       0.00000000       0.00000000       0.00000000
Ti       3.97696087       0.00000000       0.00000000       0.00000000       0.00000000       0.00000000
Ti       0.00000000       0.00000000       3.97696087       0.00000000       0.00000000       0.00000000
Ti       3.97696087       3.97696087       0.00000000       0.00000000       0.00000000       0.00000000
Ti       0.00000000       3.97696087       3.97696087       0.00000000       0.00000000       0.00000000
Ti       3.97696087       0.00000000       3.97696087       0.00000000       0.00000000       0.00000000
Ti       0.00000000       0.00000000       0.00000000       0.00000000       0.00000000       0.00000000
O        3.96933366      -0.00180065       5.96657991       0.05506557       0.01764934      -0.03700306
O        3.98458807       3.97516022       5.96430268      -0.05506557       0.01764934       0.03700306
O       -0.00762721       3.97876151       1.98734182       0.05506557      -0.01764934       0.03700306
O        0.00762721       0.00180065       1.98961905      -0.05506557      -0.01764934      -0.03700306
O       -0.00180065       5.96657991       3.96933366       0.01764934      -0.03700306       0.05506557
O        3.97516022       5.96430268       3.98458807       0.01764934       0.03700306      -0.05506557
O        3.97876151       1.98734182      -0.00762721      -0.01764934       0.03700306       0.05506557
O        0.00180065       1.98961905       0.00762721      -0.01764934      -0.03700306      -0.05506557
O        5.96657991       3.96933366      -0.00180065      -0.03700306       0.05506557       0.01764934
O        5.96430268       3.98458807       3.97516022       0.03700306      -0.05506557       0.01764934
O        1.98734182      -0.00762721       3.97876151       0.03700306       0.05506557      -0.01764934
O        1.98961905       0.00762721       0.00180065      -0.03700306      -0.05506557      -0.01764934
O        3.98458807       0.00180065       1.98734182      -0.05506557      -0.01764934       0.03700306
O        3.96933366       3.97876151       1.98961905       0.05506557      -0.01764934      -0.03700306
O        0.00762721       3.97516022       5.96657991      -0.05506557       0.01764934      -0.03700306
O       -0.00762721      -0.00180065       5.96430268       0.05506557       0.01764934       0.03700306
O        0.00180065       1.98734182       3.98458807      -0.01764934       0.03700306      -0.05506557
O        3.97876151       1.98961905       3.96933366      -0.01764934      -0.03700306       0.05506557
O        3.97516022       5.96657991       0.00762721       0.01764934      -0.03700306      -0.05506557
O       -0.00180065       5.96430268      -0.00762721       0.01764934       0.03700306       0.05506557
O        1.98734182       3.98458807       0.00180065       0.03700306      -0.05506557      -0.01764934
O        1.98961905       3.96933366       3.97876151      -0.03700306       0.05506557      -0.01764934
O        5.96657991       0.00762721       3.97516022      -0.03700306      -0.05506557       0.01764934
O        5.96430268      -0.00762721      -0.00180065       0.03700306       0.05506557       0.01764934
40
Lattice="7.930479836471804 0.0 0.0 0.0 7.930479836471804 0.0 0.0 0.0 7.930479836471804" Properties=species:S:1:pos:R:3:forces:R:3 energy=-29615.12541500719 pbc="T T T"
Ba       3.98914001       3.98008974       0.04215605      -0.07313580      -0.10828304      -0.27053713
Ba       3.98674024       7.92812686       3.98077018      -0.15271813       0.07620030      -0.02228169
Ba       0.01812432       3.97498965       3.94120977      -0.09007963       0.02066550       0.28330060
Ba       0.00331256       0.00246083       3.98768000       0.12986668       0.01715414      -0.08682101
Ba       0.00790590       3.98654991       7.92913403       0.00104747      -0.07205928      -0.01448174
Ba       3.96705996       0.01001858       0.01901729       0.07047677       0.10170796      -0.15825834
Ba       3.95774006       3.96072985       3.99793015       0.12989522       0.09405584      -0.13721695
Ba       0.00786228       0.02992170       7.91543175       0.04132560      -0.12827979       0.11291231
Ti       5.97528982       1.97879985       1.97289957       0.09421293       0.20068232      -0.26912354
Ti       2.03819993       6.00584993       1.93570958      -0.29426070      -0.08154768       0.16013782
Ti       1.96514991       2.01779005       5.97705990      -0.11396518       0.06514584       0.17276733
Ti       5.98193953       5.96268987       5.92229994       0.18332454      -0.09067252       0.11704896
Ti       2.04118972       5.97668955       5.91388967      -0.10199823      -0.05452230      -0.08837730
Ti       5.91296021       1.99108020       5.92500027       0.11444392       0.13641142       0.14814619
Ti       5.98298001       5.96107999       1.97103987       0.32997924      -0.04536506      -0.11981984
Ti       2.01380974       2.03211012       2.02597986      -0.03999531       0.10640536      -0.27123236
O        2.00658983       1.96590013       4.00572026      -0.04795802       0.04772173      -0.35543187
O        5.93015984       1.97331989       4.01171015       0.13723674       0.02835335      -0.23954120
O        1.99502006       5.93163015       4.00465995      -0.06149050       0.09073269      -0.05565950
O        5.91831012       5.94287954       3.97957981       0.03048840       0.01820547       0.19436743
O        1.97266007       3.92896987       1.99710974       0.09974080       0.05511494       0.10774799
O        1.99797020       3.97488021       5.97107953      -0.08927384      -0.21287911      -0.04824084
O        5.90105974       3.95162011       2.00573969       0.18730975      -0.07539426      -0.02016516
O        5.94449973       3.96448969       5.98850993       0.01129229      -0.01311571      -0.05256929
O        3.94714970       1.96152012       1.98693017       0.14660944      -0.04414173       0.13416813
O        3.93346962       5.93603950       2.00143978       0.07250331       0.09298986      -0.00377952
O        3.98587027       1.99192003       5.96877017       0.03245246      -0.04845270       0.07430025
O        3.95347981       5.94785988       5.96915004       0.01469771       0.01888321       0.02903521
O        5.94149963       5.98827995       0.02837129      -0.00804190      -0.21124903       0.16258294
O        1.98445031       5.92843020       0.02439971      -0.08217297       0.08481504       0.20225403
O        5.97823996       1.94065027       0.03611223      -0.12942111       0.21134597       0.24403060
O        1.99774021       2.00758035       0.00585983      -0.06202478      -0.18754809       0.11669826
O        5.94037985       0.00188111       5.97459987       0.00467144      -0.10648507      -0.12385287
O        5.94841025       7.91950009       2.01372013      -0.01825638       0.07272340       0.08351997
O        2.00146992       7.92648446       5.97123972      -0.05936523      -0.11149357       0.02838498
O        1.95433035       7.90298010       1.99362984       0.07713335      -0.03041281       0.02532819
O        7.90149393       5.94257025       5.94346956       0.00253845       0.08714908       0.09550054
O        0.01760408       1.97530013       5.96277949       0.05743073       0.06917707      -0.03503899
O        7.91131980       5.91593970       2.02804971      -0.19382750       0.09262271      -0.15079649
O        0.00864026       1.99923987       2.01459010      -0.35069256      -0.16636066       0.03099336
40
Lattice="7.9166201562078164 0.0 0.0 -0.021699455848165624 7.916588489727191 0.0 -0.021699455848165624 0.02164403950707217 7.916556823246567" Properties=species:S:1:pos:R:3:forces:R:3 energy=-29615.069758475314 pbc="T T T"
Ba       4.00751266       0.04321841       0.02977995      -0.05224687       0.03932862       0.06575956
Ba       3.98357122       0.02805967       4.00795995       0.07466072       0.17086600      -0.11563536
Ba       3.97728147       3.99101839       0.04320970       0.11691835      -0.00650052      -0.06254208
Ba       3.99241013       3.98378972       4.01598028      -0.10115774       0.14185033      -0.15133179
Ba       0.04630669       0.03046870       0.03397972       0.08276355       0.03653795       0.11441872
Ba       0.02484235       0.05208028       4.00417027       0.10556641      -0.14087691      -0.15510411
Ba       0.03481571       4.00892816       0.02153004       0.04285900      -0.05357768       0.13034645
Ba       0.01512233       4.00371981       3.96051011       0.14849483       0.17056621       0.18155768
O        2.03176969       3.98150973       2.01232014      -0.04276850       0.14422140       0.15966448
O        1.95365006       4.04055030       5.96450037       0.12643503      -0.07883542       0.05361393
O        2.00712129       0.03516009       2.02134033       0.12715442      -0.00390756      -0.05555177
O        1.99732131       0.06408029       5.98488013      -0.03716838       0.13736839       0.06234128
O        5.94942001       3.99800005       2.02481019       0.08371666       0.06243667      -0.09028712
O        5.93336035       4.05178003       5.99302000       0.09012051      -0.24963175      -0.01670111
O        5.99363116       0.03900994       2.03379001      -0.04988583       0.09333336      -0.04776133
O        5.95573113       0.08292026       5.98660991      -0.07106221       0.06860372      -0.06399759
O        2.00200003       2.03402988       4.02269991      -0.02374080      -0.03224678       0.00802750
O        2.04250146       2.04300812       0.05313002      -0.27384486      -0.14198557       0.04766902
O        1.99296004       6.01054977       4.00192036       0.12910897      -0.14618521       0.21149252
O        1.99098089       5.95726854       0.05615971       0.14257975       0.12336076       0.03888279
O        5.96225997       2.05020987       3.99472020      -0.03020095      -0.06769406       0.24437024
O        5.97885083       2.00617842       0.04950975      -0.01423260       0.13312195      -0.10519797
O        5.95359048       5.99620011       4.00553034      -0.05475036      -0.02967053       0.17216261
O        5.96452096       5.99339841       0.05072020       0.03937799      -0.02667417       0.04649172
O        0.04507803       2.03703028       2.04564040      -0.32962417      -0.05617629      -0.15645780
O       -0.00129833       2.02790004       5.97568023      -0.11552686       0.13952580       0.08858299
O        0.04732001       5.97606972       2.04436028      -0.19717070      -0.08930753      -0.14874217
O        0.00923790       6.02066009       5.99434999      -0.25645057      -0.04782483      -0.04092733
O        3.98701970       2.01384013       2.03644999       0.02986928      -0.06095366      -0.00545999
O        3.93803007       2.03668987       5.98827003       0.37396078       0.10466987      -0.04564274
O        3.99608027       5.98901973       2.02929020      -0.01815662      -0.03504336      -0.04100961
O        3.95721996       6.00603017       6.01355017       0.03824824      -0.00897341      -0.14336034
Ti       2.05824999       2.04860042       1.98013987       0.01459384      -0.01717343      -0.04532315
Ti       2.00027975       2.00562980       5.93347039       0.27437759      -0.02956100       0.01854100
Ti       2.00185041       6.00798004       1.98735032      -0.38937815       0.02670605       0.08724010
Ti       2.00244019       5.96681044       5.94745985      -0.12797460      -0.06149256      -0.11380937
Ti       6.02002992       2.02356965       2.02638005      -0.14627572      -0.07220300      -0.06933211
Ti       5.98000983       2.01232014       5.98337993      -0.08434761      -0.12820960       0.00822085
Ti       5.93203036       5.98190981       2.00621009       0.24355880       0.06302828       0.12297149
Ti       5.95717988       5.97316037       5.97798000       0.13160037      -0.07082104      -0.18817981
40
Lattice="7.9542197843929605 0.0 0.0 -0.021802516429021104 7.954187967513823 0.0 -0.021802516429021104 0.021746836890530353 7.954156150634685" Properties=species:S:1:pos:R:3:forces:R:3 energy=-29614.342396279793 pbc="T T T"
Ba       3.95614814       0.03610579       0.00012011       0.49164095       0.04224040       0.38488309
Ba       4.02573006       7.84002980       4.08495957      -0.40828450       1.06790821      -0.85868058
Ba       3.95787977       4.01716973       7.92881003       0.39979806       0.25641355       0.54972525
Ba       4.01858001       3.89809029       4.10007020      -0.19352514       0.87592677      -0.65583468
Ba       0.11668443       0.12293565       0.03755028      -0.44218398      -0.62436592       0.22453135
Ba       0.09378105       0.12499977       4.01405963      -0.27471157      -0.51707327      -0.09692956
Ba       0.02025622       4.00685549       0.00830023      -0.02289156       0.38904519       0.23436222
Ba       7.90088754       4.10143992       3.98700017       0.57296443      -0.28469183       0.27802290
O        2.11732979       4.02669013       2.02630011      -0.67397433      -0.04442661      -0.14222983
O        1.94150971       4.00655960       5.95302956      -0.22385053       0.03156261       0.26671621
O        2.02479437       0.08673997       1.98000018      -0.25942045      -0.12733183       0.33990447
O        1.98577017       7.89354977       6.00257003      -0.39716653       0.68265643      -0.14729593
O        5.95190006       3.97460988       1.99014977       0.01421949      -0.19178553      -0.05472027
O        5.93992021       3.95614018       5.96381946       0.12241305      -0.03395939       0.08752627
O        5.93311378       0.03596023       1.99874987       0.58541011      -0.23795277       0.02328468
O        5.92730402       0.02725036       5.91999012       0.03303045      -0.18227322       0.14085352
O        1.92181984       2.07352988       3.98536955       0.28959235      -0.21166427      -0.33426604
O        2.02404986       2.06321007       7.89202017      -0.49253286       0.04405020       0.96622083
O        1.98621959       5.99844020       4.02980978      -0.15043653       0.09041927      -0.26045944
O        2.00363376       6.03018549       0.06792029      -0.59409144      -0.40995391      -0.26978380
O        5.95205994       2.00817960       4.02349015       0.19083988       0.03669453      -0.77385371
O        5.88934967       1.98645980       7.88711958       0.37485193       0.16081762       0.82444737
O        5.95718962       5.98676022       3.92983001      -0.36267184       0.02021350       0.27494786
O        5.91441023       6.03285970       7.90246963       0.24362102      -0.06451104       0.34632605
O       -0.00138085       2.05364989       2.01547998      -0.20921915       0.02668779      -0.21973933
O        0.00307272       1.93534997       6.02427948      -0.58245385       0.32881581      -0.11569116
O        7.91926019       5.89822021       2.07581990       0.23161989       0.65150417      -0.63166014
O        7.81588079       6.00772993       5.94863963       1.04501202      -0.04457856       0.12784116
O        3.98994005       2.02308024       1.97930976      -0.21445109      -0.00821802       0.40189479
O        3.83436028       1.97049966       5.95851002       1.38414027       0.09148654      -0.22457429
O        3.96532969       6.00846968       1.93213010      -0.19017447       0.03397430       0.49426502
O        3.89973999       5.94389016       5.97893964       0.25206093       0.06042041      -0.02417634
Ti       2.10989975       2.03864028       2.13524030       0.28729867      -0.35252730      -0.40704908
Ti       2.03287029       2.12599989       6.05696019      -0.35341278      -0.09460914      -0.30346911
Ti       2.08034982       5.95854979       1.97290979       0.56537839       0.08167855       0.12887937
Ti       2.00219007       6.06703978       5.94816953       0.15573506      -0.55453862      -0.12900973
Ti       6.05991996       2.13094025       2.14147005      -0.64956042      -0.41635930      -0.32789227
Ti       6.06161023       2.05807005       6.08800949      -0.16270275      -0.16469484      -0.65865004
Ti       6.05289002       6.13254994       2.02308978      -0.59062379      -0.36756748      -0.35920137
Ti       5.97503968       6.08212018       5.97870976       0.20871341      -0.03943327       0.90053300
40
Lattice="7.962724706 0.0 0.0 0.0 7.962724706 0.0 0.0 0.0 7.962724706" Properties=species:S:1:pos:R:3:forces:R:3 energy=-29613.795316713393 pbc="T T T"
Ba       0.00000000       3.98136235       0.00000000       0.00000000       0.00000000       0.00000000
Ba       3.98136235       3.98136235       3.98136235       0.00000000       0.00000000       0.00000000
Ba       0.00000000       0.00000000       3.98136235       0.00000000       0.00000000       0.00000000
Ba       3.98136235       0.00000000       0.00000000       0.00000000       0.00000000       0.00000000
Ba       3.98136235       3.98136235       0.00000000       0.00000000       0.00000000       0.00000000
Ba       0.00000000       3.98136235       3.98136235       0.00000000       0.00000000       0.00000000
Ba       3.98136235       0.00000000       3.98136235       0.00000000       0.00000000       0.00000000
Ba       0.00000000       0.00000000       0.00000000       0.00000000       0.00000000       0.00000000
Ti       1.90416461       6.05856010       2.07719774       0.39572440      -0.39572440      -0.39572440
Ti       2.07719774       1.90416461       6.05856010      -0.39572440       0.39572440      -0.39572440
Ti       6.05856010       2.07719774       1.90416461      -0.39572440      -0.39572440       0.39572440
Ti       5.88552696       5.88552696       5.88552696       0.39572440       0.39572440       0.39572440
Ti       6.05856010       1.90416461       5.88552696      -0.39572440       0.39572440       0.39572440
Ti       5.88552696       6.05856010       1.90416461       0.39572440      -0.39572440       0.39572440
Ti       1.90416461       5.88552696       6.05856010       0.39572440       0.39572440      -0.39572440
Ti       2.07719774       2.07719774       2.07719774      -0.39572440      -0.39572440      -0.39572440
O        6.05645425       2.06064829       3.89774913      -0.12568966      -0.53610483       0.45381642
O        1.90627046       6.04201065       0.08361322       0.12568966      -0.53610483      -0.45381642
O        2.07509190       1.92071406       4.06497558      -0.12568966       0.53610483      -0.45381642
O        5.88763281       5.90207641      -0.08361322       0.12568966       0.53610483       0.45381642
O        2.06064829       3.89774913       6.05645425      -0.53610483       0.45381642      -0.12568966
O        6.04201065       0.08361322       1.90627046      -0.53610483      -0.45381642       0.12568966
O        1.92071406       4.06497558       2.07509190       0.53610483      -0.45381642      -0.12568966
O        5.90207641      -0.08361322       5.88763281       0.53610483       0.45381642       0.12568966
O        3.89774913       6.05645425       2.06064829       0.45381642      -0.12568966      -0.53610483
O        0.08361322       1.90627046       6.04201065      -0.45381642       0.12568966      -0.53610483
O        4.06497558       2.07509190       1.92071406      -0.45381642      -0.12568966       0.53610483
O       -0.08361322       5.88763281       5.90207641       0.45381642       0.12568966       0.53610483
O        1.90627046       5.90207641       4.06497558       0.12568966       0.53610483      -0.45381642
O        6.05645425       1.92071406      -0.08361322      -0.12568966       0.53610483       0.45381642
O        5.88763281       6.04201065       3.89774913       0.12568966      -0.53610483       0.45381642
O        2.07509190       2.06064829       0.08361322      -0.12568966      -0.53610483      -0.45381642
O        5.90207641       4.06497558       1.90627046       0.53610483      -0.45381642       0.12568966