192
Lattice="12.942278 0.0 0.0 -1e-06 12.942278 0.0 -1e-06 -1e-06 62.0" Properties=species:S:1:pos:R:3:forces:R:3:force:R:3 i=4 time=0.0 E=-30040.15483698711 TotEnergy=-30040.15483698711 pbc="T T T"
O       -2.27986000      -5.72017000       8.27662000      -1.11159321       1.09934096      -0.99937434      -1.11159321       1.09934096      -0.99937434
H       -1.50821000      -6.24306000       8.39667000       1.29009061      -0.92959236       0.39226495       1.29009061      -0.92959236       0.39226495
H       -2.30867000      -5.50713000       7.31768000      -0.27137278      -0.22090485       0.51120895      -0.27137278      -0.22090485       0.51120895
O       -9.79395000       3.36263000       3.71810000       0.56545263      -0.48529863      -0.38726376       0.56545263      -0.48529863      -0.38726376
H       -9.48494000       2.85450000       2.95530000      -0.56479382       0.17558042      -0.39730451      -0.56479382       0.17558042      -0.39730451
H       -9.04053000       3.12682000       4.27032000      -0.25486919       0.27429408       0.57968146      -0.25486919       0.27429408       0.57968146
O       19.35600000     -19.61730000      10.97900000       1.45887465       0.02297859      -0.01543090       1.45887465       0.02297859      -0.01543090
H       19.12700000     -18.77690000      10.53990000       0.45104387      -0.57017418      -0.18449561       0.45104387      -0.57017418      -0.18449561
H        7.33980000     -19.91250000      10.74080000      -1.29120624       1.05568792       0.06681265      -1.29120624       1.05568792       0.06681265
O       14.03540000      18.78970000       3.81552000      -0.18263522      -0.29939966      -0.80666622      -0.18263522      -0.29939966      -0.80666622
H       14.77960000      18.21350000       3.66325000       0.40929163      -0.40151202      -0.34539025       0.40929163      -0.40151202      -0.34539025
H       14.06620000      18.84100000       4.76455000      -0.21862089       0.34852443       1.06311039      -0.21862089       0.34852443       1.06311039
O       -4.11464000       2.08298000      12.66020000       1.74508345      -2.85355557      -2.23196206       1.74508345      -2.85355557      -2.23196206
H       -4.59604000       1.29513000      12.29240000       0.16387760       1.00535372      -0.00130264       0.16387760       1.00535372      -0.00130264
H       -4.71479000       2.58799000      13.11070000      -2.35769138       1.82323854       1.68986197      -2.35769138       1.82323854       1.68986197
O        7.47029000       3.24355000       5.35179000      -0.96530669       0.46383286       1.48242126      -0.96530669       0.46383286       1.48242126
H        8.35727000       3.00524000       5.08441000       1.02266115      -0.49538130      -0.13173576       1.02266115      -0.49538130      -0.13173576
H       -7.66828000      -7.84778000      11.19600000      -0.32657136       0.38835576      -0.13552382      -0.32657136       0.38835576      -0.13552382
O        4.98386000      11.90480000       5.39877000      -0.13684531      -0.62495429       0.08987705      -0.13684531      -0.62495429       0.08987705
H        5.21690000      12.71640000       4.94796000       0.66548269       0.69483091      -0.26589344       0.66548269       0.69483091      -0.26589344
H        4.13425000      12.15510000       5.77162000      -0.42522166      -0.00178049       0.40169666      -0.42522166      -0.00178049       0.40169666
O       24.69140000      15.64460000       8.98242000       0.32945910      -0.01260310       0.07885997       0.32945910      -0.01260310       0.07885997
H       23.74810000      15.72530000       9.16326000      -0.47103284       0.32807117       0.39585780      -0.47103284       0.32807117       0.39585780
H       11.76110000      15.27280000       8.10698000       0.43731787      -0.37023555      -0.94675177       0.43731787      -0.37023555      -0.94675177
O       -2.09464000      -5.73917000      12.06280000       0.40696130       1.75242973      -0.18960940       0.40696130       1.75242973      -0.18960940
H       -1.84136000      -4.77737000      11.81170000      -0.37124326      -1.90529479       0.62479625      -0.37124326      -1.90529479       0.62479625
H       -1.26597000      -6.18090000      12.27020000       0.07772036       0.10678467       0.07703250       0.07772036       0.10678467       0.07703250
O        9.37087000      32.39200000       2.15782000       1.44601769       0.12575816      -0.85834666       1.44601769       0.12575816      -0.85834666
H        7.98462000      -0.43882300       8.83868000      -0.12274315       0.32881989       1.33734690      -0.12274315       0.32881989       1.33734690
H        9.86168000       9.14823000      15.31160000       0.78376286       1.33029674       0.26187005       0.78376286       1.33029674       0.26187005
O       33.05320000      23.25600000      11.61880000       0.71953951      -2.01817694       0.89663071       0.71953951      -2.01817694       0.89663071
H       14.44340000     -28.19750000      -0.30289200       0.60873395       0.42993976      -0.37175497       0.60873395       0.42993976      -0.37175497
H       15.79620000     -27.33180000      -0.10587500       0.38179007       0.66679582      -1.18344435       0.38179007       0.66679582      -1.18344435
O       28.59260000      25.93680000       6.70249000       0.50132739       0.48464073       0.05839506       0.50132739       0.48464073       0.05839506
H       27.94920000      26.27330000       6.05565000      -0.02375763      -0.33023666      -0.10683359      -0.02375763      -0.33023666      -0.10683359
H       28.23880000      25.20640000       7.20418000      -0.56097305      -0.49333579       0.03942975      -0.56097305      -0.49333579       0.03942975
O       16.61180000       7.56946000       5.10437000      -0.24363374       0.24341241      -1.53881927      -0.24363374       0.24341241      -1.53881927
H       17.16870000       7.13813000       5.72328000       0.65079177      -0.57752408       1.25752469       0.65079177      -0.57752408       1.25752469
H       16.81270000       7.06709000       4.29488000      -0.42946631       0.33021887       0.30586206      -0.42946631       0.33021887       0.30586206
O      -11.77100000      26.97010000       4.57094000      -0.74213190      -2.51550078       0.54085395      -0.74213190      -2.51550078       0.54085395
H      -11.99400000      26.42340000       3.76666000       0.53598434       0.89718602       0.32734656       0.53598434       0.89718602       0.32734656
H      -11.62810000      27.86020000       4.35170000       0.60982908       1.65082126      -0.91616713       0.60982908       1.65082126      -0.91616713
O       10.11260000       7.69043000       5.51423000       0.63504545      -0.16718410       0.38700595       0.63504545      -0.16718410       0.38700595
H        9.19722000       7.87889000       5.31051000      -0.84304760       0.22739795      -0.25474039      -0.84304760       0.22739795      -0.25474039
H       10.35520000       6.95644000       4.94778000       0.06080529       0.10004084      -0.14111908       0.06080529       0.10004084      -0.14111908
O       -3.60583000       5.90692000      10.25650000      -1.17779747      -0.84314559       0.11592305      -1.17779747      -0.84314559       0.11592305
H       -3.33442000       6.31235000       9.43111000       0.26054602       0.25678081      -0.36355525       0.26054602       0.25678081      -0.36355525
H       -3.06141000       6.29411000      10.94910000       0.38498229       0.39227454       0.31243459       0.38498229       0.39227454       0.31243459
O       16.27880000       4.64078000       8.16320000       0.94762898       0.26701378       1.87881572       0.94762898       0.26701378       1.87881572
H       -8.78610000       9.18173000       2.58746000      -0.39669468      -0.60336721      -0.97375109      -0.39669468      -0.60336721      -0.97375109
H       15.84960000       5.21535000       7.52770000      -0.39869030       0.49912023      -0.11260824      -0.39869030       0.49912023      -0.11260824
O       -2.98570000       2.47705000       4.50904000      -0.48473590       0.04301644      -0.67163585      -0.48473590       0.04301644      -0.67163585
H       -2.35155000       2.05809000       5.08662000       0.84060916       0.02446136       0.98786179       0.84060916       0.02446136       0.98786179
H       10.02710000       1.08804000      13.55160000      -0.02152593       0.70554678      -0.22575465      -0.02152593       0.70554678      -0.22575465
O       -9.34776000      21.61300000       1.93076000       0.37205350       1.67888269      -0.26094410       0.37205350       1.67888269      -0.26094410
H       -9.42519000      22.26130000       1.17842000       0.06030717      -1.18247323       1.17174833       0.06030717      -1.18247323       1.17174833
H       19.58630000      13.24320000      10.76490000      -1.14023894       0.40841535      -0.00989762      -1.14023894       0.40841535      -0.00989762
O       -1.72463000      22.80580000     -50.10130000      -0.23019526      -0.49358791      -1.14994960      -0.23019526      -0.49358791      -1.14994960
H       -1.24290000      23.45370000     -50.60820000       0.41660874       0.22036766      -0.79476626       0.41660874       0.22036766      -0.79476626
H        7.44572000       3.26829000       6.34683000      -0.19514154       0.00238153      -1.31074394      -0.19514154       0.00238153      -1.31074394
O       -7.59796000      21.04000000       8.84815000       0.02675756       0.41436940       0.32380345       0.02675756       0.41436940       0.32380345
H        5.63330000      21.83540000       8.33170000      -0.10974821      -1.04321918       0.14390067      -0.10974821      -1.04321918       0.14390067
H        5.45062000      20.24600000       8.28653000      -0.06402698       0.69261032      -0.26522517      -0.06402698       0.69261032      -0.26522517
O       27.32960000       6.09605000       6.65789000       0.03422724       1.26372959      -0.53662249       0.03422724       1.26372959      -0.53662249
H       27.26900000       7.05936000       6.50452000       0.47399976      -0.31490159      -0.27112367       0.47399976      -0.31490159      -0.27112367
H       26.67470000       5.99217000       7.34930000      -0.46807347      -0.79950599       0.52060356      -0.46807347      -0.79950599       0.52060356
O       10.86050000       0.83623600      13.95520000       1.03977449      -0.21897292       0.39788699       1.03977449      -0.21897292       0.39788699
H       32.97480000      22.58190000      12.39470000      -0.01149172       1.54887738      -1.26040536      -0.01149172       1.54887738      -1.26040536
H       11.52230000       1.53034000      13.79990000      -0.77566334      -0.14434675      -0.21377141      -0.77566334      -0.14434675      -0.21377141
O       12.92290000      15.93190000      13.11660000      -0.93891802       1.41739948       1.37712785      -0.93891802       1.41739948       1.37712785
H       13.53760000      15.54280000      13.70820000       0.84846617      -0.30567465       0.94565097       0.84846617      -0.30567465       0.94565097
H       13.09100000      15.46550000      12.33120000       0.39753019      -1.04159807      -2.43234504       0.39753019      -1.04159807      -2.43234504
O        5.57659000      27.36510000       4.14259000      -0.28853452       0.69842176       0.24795641      -0.28853452       0.69842176       0.24795641
H        5.94662000      27.17090000       3.26906000       0.24003955      -0.15690859       0.08109620       0.24003955      -0.15690859       0.08109620
H        6.11288000      28.13040000       4.42460000      -0.01731894      -0.63721804       0.36887033      -0.01731894      -0.63721804       0.36887033
O        2.11331000      18.88860000      10.68610000      -0.84098846       0.18737711       0.85897602      -0.84098846       0.18737711       0.85897602
H      -11.30990000      18.97770000      11.54530000       0.36034215      -0.47235164      -0.47888858       0.36034215      -0.47235164      -0.47888858
H        2.04333000      19.79620000      10.38670000       0.60298607       0.50781712      -0.52980143       0.60298607       0.50781712      -0.52980143
O       32.43560000       3.69208000       8.08554000       1.58859912       0.52598113       0.44865016       1.58859912       0.52598113       0.44865016
H       31.99090000       2.88191000       8.32905000      -0.21669181      -0.18778456       0.39447566      -0.21669181      -0.18778456       0.39447566
H        9.99678000      31.64170000       2.14942000      -0.69883807       0.46115000       0.24269702      -0.69883807       0.46115000       0.24269702
O       18.43310000      23.16040000       3.13771000       0.90275596      -0.88349152       0.78988024       0.90275596      -0.88349152       0.78988024
H       19.08240000      22.65580000       3.68474000      -0.30385308       0.13103919      -0.96271384      -0.30385308       0.13103919      -0.96271384
H       18.00750000      23.63250000       3.85176000      -0.45544487       0.79651703       0.37752448      -0.45544487       0.79651703       0.37752448
O      -14.34100000      -1.66453000      14.45490000       0.87261291      -0.33408575       0.62189981       0.87261291      -0.33408575       0.62189981
H      -14.55470000      -0.75633300      14.15890000      -0.12796858       0.17956022       0.25524006      -0.12796858       0.17956022       0.25524006
H      -13.63950000      -1.55261000      15.13220000      -0.90285900      -0.19519270      -0.92064135      -0.90285900      -0.19519270      -0.92064135
O       39.49050000      31.88250000     -49.01990000      -0.39336148      -1.57967124       0.29933988      -0.39336148      -1.57967124       0.29933988
H       39.98960000      44.96650000     -48.21420000       0.00158045       0.26167641       0.04008368       0.00158045       0.26167641       0.04008368
H       39.28950000      30.90740000     -48.98060000       0.00859255       0.98647569      -0.15545922       0.00859255       0.98647569      -0.15545922
O      -26.90310000       1.57100000       6.18547000      -0.22185943      -0.60528110       0.40656074      -0.22185943      -0.60528110       0.40656074
H      -26.08280000       1.35293000       5.71126000      -0.01305590       0.23424268      -0.16318826      -0.01305590       0.23424268      -0.16318826
H      -27.17110000       0.69521300       6.54734000       0.05688226       0.24676290      -0.17025760       0.05688226       0.24676290      -0.17025760
O       39.39750000      -0.20806100       2.14667000       1.46287766       0.65067249      -0.46362152       1.46287766       0.65067249      -0.46362152
H       39.91040000      -0.84415100       1.60800000      -0.53680851       0.39696562       0.64792388      -0.53680851       0.39696562       0.64792388
H       38.60140000      -0.62511300       2.48890000      -0.63170736      -0.85355300      -0.32045534      -0.63170736      -0.85355300      -0.32045534
O       20.48870000      13.03380000      10.92710000       1.56386229      -0.39601448       0.36427441       1.56386229      -0.39601448       0.36427441
H       20.54990000      12.12180000      11.26270000      -0.51531880       0.22243975      -0.02848718      -0.51531880       0.22243975      -0.02848718
H      -14.46250000      -1.63975000       3.87069000      -0.17313344      -0.41312481      -1.32202374      -0.17313344      -0.41312481      -1.32202374
O       33.23840000       8.42355000      66.86870000      -0.60568229      -0.28577010       1.17994477      -0.60568229      -0.28577010       1.17994477
H       33.72600000      22.83430000      11.03330000      -1.03452863       0.38462086       0.34841034      -1.03452863       0.38462086       0.34841034
H       32.91040000       7.51839000      66.72110000       0.32723609       0.31920662      -0.08731705       0.32723609       0.31920662      -0.08731705
O        9.55063000       8.35186000      14.93950000      -0.96362113      -1.49392224      -0.66188628      -0.96362113      -1.49392224      -0.66188628
H       -1.74930000      23.18230000     -49.24240000      -0.01137062       0.47727603       1.72155322      -0.01137062       0.47727603       1.72155322
H       10.02640000       8.14870000      14.12790000       0.27323199       0.16027234       0.13367943       0.27323199       0.16027234       0.13367943
O       -0.22988100      11.72320000       9.86100000      -0.95015997      -1.32801449      -1.27618687      -0.95015997      -1.32801449      -1.27618687
H        0.05561550      12.35330000      10.50270000       0.22574204       1.36069318       0.13324034       0.22574204       1.36069318       0.13324034
H       -0.73342300      12.12600000       9.11396000       0.43571156      -0.08558058       0.95087321       0.43571156      -0.08558058       0.95087321
O        9.29258000       9.45361000       9.58842000       0.72281470       0.03897090       1.01077791       0.72281470       0.03897090       1.01077791
H        9.71686000       8.69573000       9.12669000      -0.10728174       0.53851259       0.57762950      -0.10728174       0.53851259       0.57762950
H        9.75302000       9.55979000      10.46610000      -0.25859690      -0.27598970      -1.56564555      -0.25859690      -0.27598970      -1.56564555
O       -1.40442000      10.17180000       5.54118000       0.36536863       0.54815656      -0.23303677       0.36536863       0.54815656      -0.23303677
H       -1.99122000       9.42534000       5.44088000      -0.10520213      -0.71230166      -0.14911946      -0.10520213      -0.71230166      -0.14911946
H       -0.49060200       9.84136000      67.50630000       0.02060108      -0.35044835      -0.04580009       0.02060108      -0.35044835      -0.04580009
O       11.37770000       2.22093000       1.08227000      -0.50635744       0.67939207      -0.23579562      -0.50635744       0.67939207      -0.23579562
H       32.82850000       8.70602000      67.73070000       0.53194028      -0.03021835      -0.96323141       0.53194028      -0.03021835      -0.96323141
H       12.20410000       1.78601000       0.98668100       0.96749565      -0.84296026      -0.13422731       0.96749565      -0.84296026      -0.13422731
O        8.45018000      -0.97387700       8.22286000       1.29783756      -1.98402795      -1.37628893       1.29783756      -1.98402795      -1.37628893
H        8.92745000      -1.74754000       8.63003000      -1.06838124       1.20509211       0.26825175      -1.06838124       1.20509211       0.26825175
H       -9.25870000      -8.03049000      11.22940000       0.49557888       0.15871654      -0.15390172       0.49557888       0.15871654      -0.15390172
O       14.53340000      10.44070000       8.13735000      -1.43895470       1.96767935      -1.06319018      -1.43895470       1.96767935      -1.06319018
H       13.83230000      10.83690000       8.70169000       0.65568003      -0.40693575      -0.09010849       0.65568003      -0.40693575      -0.09010849
H       15.02690000       9.83012000       8.64978000       0.87060862      -1.14758057       1.31383184       0.87060862      -1.14758057       1.31383184
O       15.13980000     -27.87640000       0.27614300      -0.93753958      -1.07572487       1.60622701      -0.93753958      -1.07572487       1.60622701
H        6.80916000       7.67846000      13.28830000       0.25190064      -0.32068004       0.09472952       0.25190064      -0.32068004       0.09472952
H       -3.13546000       1.76450000       3.85937000      -0.26825270       0.29443049      -0.48807138      -0.26825270       0.29443049      -0.48807138
O       17.21210000      -1.76001000      10.70150000      -0.72874766      -0.27830987       0.41658619      -0.72874766      -0.27830987       0.41658619
H       18.02050000      -2.11790000      11.05620000       0.62650949      -0.16197721       0.12611219       0.62650949      -0.16197721       0.12611219
H       17.46370000      -1.03810000      10.14770000       0.17890958       0.46432065      -0.42140132       0.17890958       0.46432065      -0.42140132
O        4.51398000      31.79350000      64.62350000      -0.20786869      -0.23410531       0.15310020      -0.20786869      -0.23410531       0.15310020
H        4.33964000      32.66540000      64.26470000      -0.05803440       0.41281587      -0.45045495      -0.05803440       0.41281587      -0.45045495
H        3.85476000      31.21800000      64.21380000       0.43239223       0.10831273       0.32188771       0.43239223       0.10831273       0.32188771
O      -12.23120000      -4.65392000       2.24113000       0.68017294      -0.93108881       0.31977685       0.68017294      -0.93108881       0.31977685
H      -11.41720000      -4.14345000       2.22767000       0.08429502       0.17416572      -0.12445440       0.08429502       0.17416572      -0.12445440
H        8.72303000      32.26400000       2.83030000      -0.66531856      -0.64282873       0.70728525      -0.66531856      -0.64282873       0.70728525
O        9.13243000      16.16150000       9.72926000       0.04761037       0.90266200       1.19494745       0.04761037       0.90266200       1.19494745
H        9.15735000      15.79360000      10.62550000      -0.29103210      -0.66537779      -0.28214092      -0.29103210      -0.66537779      -0.28214092
H        9.22592000      17.10930000      10.01280000       0.12674923      -0.15867886      -0.81395253       0.12674923      -0.15867886      -0.81395253
O       -1.68850000     -39.70870000       7.21948000       0.81726156       0.14692360       0.44316717       0.81726156       0.14692360       0.44316717
H       -1.62649000     -40.54360000       6.70102000       0.25687180       0.18037390      -0.24755230       0.25687180       0.18037390      -0.24755230
H       -2.59975000     -39.65040000       7.45577000      -1.16412195       0.34112911       0.32406591      -1.16412195       0.34112911       0.32406591
O        1.12117000      21.99730000       5.94348000      -0.25011981      -0.40585554      -0.22533858      -0.25011981      -0.40585554      -0.22533858
H        2.00601000      21.97500000       5.59041000       0.36922184      -0.26650865      -0.63463328       0.36922184      -0.26650865      -0.63463328
H        1.24125000      22.48280000       6.76707000      -0.10913399       0.45551677       0.69919033      -0.10913399       0.45551677       0.69919033
O      -10.92140000       2.18017000       8.49530000       1.21259823      -0.40614128      -0.44363308       1.21259823      -0.40614128      -0.44363308
H      -10.39970000       3.02211000       8.40114000      -0.47976674      -0.80226836      -0.07510888      -0.47976674      -0.80226836      -0.07510888
H      -10.51550000       1.48410000       7.90809000      -0.47638332       1.15454633       0.53820162      -0.47638332       1.15454633       0.53820162
O        9.62572000       0.78318100       2.31536000      -0.66085415      -2.21234241       1.64509934      -0.66085415      -2.21234241       1.64509934
H        9.99121000      -0.13644300       2.59339000      -0.16492291       2.32449005      -1.17266549      -0.16492291       2.32449005      -1.17266549
H       -2.70654000       1.32179000       1.77970000       0.80125670      -0.35672232      -0.21894241       0.80125670      -0.35672232      -0.21894241
O       -8.40380000      -8.48392000      11.21170000      -0.39931079      -0.92116052       0.18578808      -0.39931079      -0.92116052       0.18578808
H       -0.95353600       8.67650000       1.97640000       0.43754707      -0.22704399       0.07011714       0.43754707      -0.22704399       0.07011714
H       33.20790000       3.75627000       8.71060000      -1.14827927      -0.39558078      -0.80222419      -1.14827927      -0.39558078      -0.80222419
O        6.89523000       8.45432000      13.84240000       1.44781553       0.74545283       0.26118639       1.44781553       0.74545283       0.26118639
H        7.83152000       8.49532000      14.22420000      -1.54766903      -0.53746158      -0.55734727      -1.54766903      -0.53746158      -0.55734727
H       16.46330000       5.15660000       9.00173000      -0.59602059      -0.98333923      -1.73669118      -0.59602059      -0.98333923      -1.73669118
O       12.81550000      18.25010000       8.73640000      -0.44250538      -1.50734421      -0.56331608      -0.44250538      -1.50734421      -0.56331608
H       12.64640000      17.26290000       8.59180000      -0.01891937       1.64778710       0.52133295      -0.01891937       1.64778710       0.52133295
H       13.50720000      18.28570000       9.39815000       0.33875441      -0.00582379       0.30714590       0.33875441      -0.00582379       0.30714590
O       -1.44738000      17.20230000       2.73864000      -0.25886375       0.40678307      -0.02223156      -0.25886375       0.40678307      -0.02223156
H       -1.89563000      16.85820000       3.52421000       0.12873614      -0.22563455       0.03214508       0.12873614      -0.22563455       0.03214508
H       -0.63545500      17.64130000       2.99915000       0.19469254       0.20736632       0.36524905       0.19469254       0.20736632       0.36524905
O       19.33280000      -3.02626000       7.08841000       0.30540032       1.30109611      -0.03228979       0.30540032       1.30109611      -0.03228979
H       18.83510000      -2.35937000       6.55509000       0.31572168      -0.40810774       0.31989537       0.31572168      -0.40810774       0.31989537
H       32.98190000      -2.48527000       7.51415000      -0.60918624      -0.41669990      -0.48474137      -0.60918624      -0.41669990      -0.48474137
O      -21.17240000     -10.72850000       0.96906600      -1.94882962       0.66409041       1.23231104      -1.94882962       0.66409041       1.23231104
H      -33.82670000     -10.71280000       0.09589910       0.49132899       0.24411304      -2.27621279       0.49132899       0.24411304      -2.27621279
H      -20.46480000     -11.15330000       1.40259000       1.38885202      -0.77313547       0.88689743       1.38885202      -0.77313547       0.88689743
O       -1.83559000       9.03392000       1.83304000      -0.59111351       0.23363522      -0.10305278      -0.59111351       0.23363522      -0.10305278
H       -2.46492000       8.32271000      63.99610000      -0.04045868      -0.05045556      -0.06953775      -0.04045868      -0.05045556      -0.06953775
H      -11.90150000      -5.51540000       2.57899000      -0.66557213       0.62275179      -0.01281852      -0.66557213       0.62275179      -0.01281852
O        7.29733000     -20.26170000       4.13096000       0.68259350       0.51351910       0.47860764       0.68259350       0.51351910       0.47860764
H        6.44610000     -20.26290000       3.74109000      -1.42504287       0.26962574      -1.13001046      -1.42504287       0.26962574      -1.13001046
H        7.29759000     -21.13440000       4.54688000       0.50502851      -0.46610678       0.53120227       0.50502851      -0.46610678       0.53120227
O       13.55960000       1.43163000      10.72630000       0.56242649      -0.67907104      -0.00433131       0.56242649      -0.67907104      -0.00433131
H       14.35050000       1.33385000      10.16000000      -0.19324252       0.47712912       0.44793461      -0.19324252       0.47712912       0.44793461
H       12.94780000       1.74831000      10.05500000      -0.62892802       0.48452559      -0.12500897      -0.62892802       0.48452559      -0.12500897
O       28.73720000       8.75687000       9.82142000      -1.60484069       0.56196202       1.16676187      -1.60484069       0.56196202       1.16676187
H       29.61260000       8.53994000       9.50798000       1.18138869      -0.05837197      -0.11974123       1.18138869      -0.05837197      -0.11974123
H       28.78650000       9.44460000      10.52270000       0.51136244      -0.79829727      -0.99861353       0.51136244      -0.79829727      -0.99861353
O        5.28527000       1.91798000      10.15510000      -1.68812970       0.71596700      -0.15320692      -1.68812970       0.71596700      -0.15320692
H        5.00070000       2.81294000      10.51910000       0.58300023      -0.85929037      -0.19556945       0.58300023      -0.85929037      -0.19556945
H        4.42228000       1.61997000       9.79549000       0.86795645       0.15663637       0.24168195       0.86795645       0.15663637       0.24168195
O       -7.45468000      -6.81378000       6.97157000      -0.12736054      -0.28146687       0.57227140      -0.12736054      -0.28146687       0.57227140
H       -6.60024000     -19.83630000       6.57254000       0.68624420       0.07738318      -0.57518500       0.68624420       0.07738318      -0.57518500
H       -7.46245000      -7.59994000       7.54451000      -0.37793116      -0.14276876      -0.26099438      -0.37793116      -0.14276876      -0.26099438
O       -6.00360000     -25.09030000       1.98598000      -2.43355359      -0.95387558      -0.49328705      -2.43355359      -0.95387558      -0.49328705
H       -6.18244000     -26.04280000       2.04553000       0.35279648       0.51626625      -0.11206758       0.35279648       0.51626625      -0.11206758
H       -5.07908000     -24.96910000       2.08426000       2.24347235       0.03431788       0.18979512       2.24347235       0.03431788       0.18979512
O      -14.50690000      -1.47710000       2.89327000      -0.23156913       1.54026176       1.96265273      -0.23156913       1.54026176       1.96265273
H      -14.66920000      -2.30513000       2.44248000      -0.24750980      -1.33238987      -0.18318141      -0.24750980      -1.33238987      -0.18318141