40
Lattice="7.955101122 0.0 0.0 0.0 7.955101122 0.0 0.0 0.0 7.955101122" Properties=species:S:1:pos:R:3:forces:R:3 energy=-29615.216215041328 pbc="T T T"
Ba       3.97755056       3.97755056       0.00000000       0.00000000       0.00000000       0.00000000
Ba       3.97755056       0.00000000       3.97755056       0.00000000       0.00000000       0.00000000
Ba       0.00000000       3.97755056       3.97755056       0.00000000       0.00000000       0.00000000
Ba       0.00000000       0.00000000       3.97755056       0.00000000       0.00000000       0.00000000
Ba       0.00000000       3.97755056       0.00000000       0.00000000       0.00000000       0.00000000
Ba       3.97755056       0.00000000       0.00000000       0.00000000       0.00000000       0.00000000
Ba       3.97755056       3.97755056       3.97755056       0.00000000       0.00000000       0.00000000
Ba       0.00000000       0.00000000       0.00000000       0.00000000       0.00000000       0.00000000
Ti       5.96632584       1.98877528       1.98877528      -0.00000077       0.00000077       0.00000077
Ti       1.98877528       5.96632584       1.98877528       0.00000077      -0.00000077       0.00000077
Ti       1.98877528       1.98877528       5.96632584       0.00000077       0.00000077      -0.00000077
Ti       5.96632584       5.96632584       5.96632584      -0.00000077      -0.00000077      -0.00000077
Ti       1.98877528       5.96632584       5.96632584       0.00000077      -0.00000077      -0.00000077
Ti       5.96632584       1.98877528       5.96632584      -0.00000077       0.00000077      -0.00000077
Ti       5.96632584       5.96632584       1.98877528      -0.00000077      -0.00000077       0.00000077
Ti       1.98877528       1.98877528       1.98877528       0.00000077       0.00000077       0.00000077
O        1.99154871       1.98589619       3.97755056      -0.00639408       0.00776396       0.00000000
O        5.96355241       1.98589619       3.97755056       0.00639408       0.00776396       0.00000000
O        1.99154871       5.96920493       3.97755056      -0.00639408      -0.00776396       0.00000000
O        5.96355241       5.96920493       3.97755056       0.00639408      -0.00776396       0.00000000
O        1.98589619       3.97755056       1.99154871       0.00776396       0.00000000      -0.00639408
O        1.98589619       3.97755056       5.96355241       0.00776396       0.00000000       0.00639408
O        5.96920493       3.97755056       1.99154871      -0.00776396       0.00000000      -0.00639408
O        5.96920493       3.97755056       5.96355241      -0.00776396       0.00000000       0.00639408
O        3.97755056       1.99154871       1.98589619       0.00000000      -0.00639408       0.00776396
O        3.97755056       5.96355241       1.98589619       0.00000000       0.00639408       0.00776396
O        3.97755056       1.99154871       5.96920493       0.00000000      -0.00639408      -0.00776396
O        3.97755056       5.96355241       5.96920493       0.00000000       0.00639408      -0.00776396
O        5.96909929       5.96344677       0.00000000      -0.00639433       0.00776345       0.00000000
O        1.98600184       5.96344677       0.00000000       0.00639433       0.00776345       0.00000000
O        5.96909929       1.99165435       0.00000000      -0.00639433      -0.00776345       0.00000000
O        1.98600184       1.99165435       0.00000000       0.00639433      -0.00776345       0.00000000
O        5.96344677       0.00000000       5.96909929       0.00776345       0.00000000      -0.00639433
O        5.96344677       0.00000000       1.98600184       0.00776345       0.00000000       0.00639433
O        1.99165435       0.00000000       5.96909929      -0.00776345       0.00000000      -0.00639433
O        1.99165435       0.00000000       1.98600184      -0.00776345       0.00000000       0.00639433
O        0.00000000       5.96909929       5.96344677       0.00000000      -0.00639433       0.00776345
O        0.00000000       1.98600184       5.96344677       0.00000000       0.00639433       0.00776345
O        0.00000000       5.96909929       1.99165435       0.00000000      -0.00639433      -0.00776345
O        0.00000000       1.98600184       1.99165435       0.00000000       0.00639433      -0.00776345
40
Lattice="7.8262197553503645 0.0 0.0 0.0 7.8262197553503645 0.0 0.0 0.0 8.20964191360449" Properties=species:S:1:pos:R:3:forces:R:3 energy=-29615.122541348996 pbc="T T T"
Ba       1.96902993       1.96095014       0.03406519      -0.06224564      -0.03898898      -0.16854224
Ba       1.96280026       1.97309018       4.10421990      -0.07968517      -0.16743101       0.08301886
Ba       1.94957004       5.86719956       0.02030748       0.02608590      -0.01530578      -0.04891884
Ba       1.95958995       5.87991951       4.12204960      -0.09518327      -0.03458802      -0.04209950
Ba       5.87294009       1.94658981       0.00033731      -0.09671796       0.03505134       0.01836488
Ba       5.86916003       1.96225008       4.11071958       0.03021072      -0.06685280       0.06436705
Ba       5.86300001       5.85022996       8.19129178       0.02614401       0.09633204       0.15324598
Ba       5.86819975       5.87622945       4.11340006       0.06971829      -0.02528860       0.03044803
Ti       0.00238934       0.00117159       2.13107964       0.06083821       0.00875126      -0.19604764
Ti       0.00117472       0.00040462       6.23934961       0.11508463      -0.11704047      -0.02457743
Ti       7.80250631       3.91723977       2.12581025       0.17702585       0.01051633      -0.01973862
Ti       0.00371980       3.89929973       6.24264993      -0.13432986       0.16441279      -0.23323351
Ti       3.92087975       7.82512487       2.14295984      -0.09397305      -0.05171877       0.02738945
Ti       3.91511965       7.80433999       6.24595964      -0.12183687       0.26410475      -0.36903095
Ti       3.90449008       3.91310988       2.16624989      -0.07683999       0.04575072      -0.60016001
Ti       3.90669003       3.90299997       6.24186965       0.16233637      -0.16925726      -0.06965993
O        0.00257013       1.95593980       1.93646973       0.01808694       0.04152769       0.14250185
O        1.97178007       0.00126002       1.96717981      -0.18491682      -0.01450591       0.02557348
O        0.01629028       0.00493991       3.95427971      -0.08493896      -0.02003481       0.07668315
O        0.01514060       1.95718965       6.06360011      -0.10530004      -0.02052974       0.03433323
O        1.95143033       7.81659037       6.06733008       0.11202451      -0.00204943       0.02087941
O        0.00155037       7.82131976       8.07008946      -0.02147025       0.04663158      -0.01897808
O        0.00258030       5.86835001       1.94329967      -0.07355515       0.01076907       0.10046380
O        1.96356958       3.92185020       1.95529961      -0.11986123       0.00296937       0.11925471
O        7.81573027       3.92671967       3.95634974       0.02879301      -0.08172637      -0.05124003
O        7.80971426       5.86716982       6.07098962       0.04210233       0.06624499      -0.01921925
O        1.94158964       3.91308014       6.07403950       0.12090047       0.05400679       0.00394921
O        7.80064054       3.91740960       8.06145009       0.12268430      -0.07871150       0.22771438
O        3.88294997       1.97062022       1.97763956       0.22221196      -0.13722080      -0.01371684
O        5.87159946       0.00650985       1.96181025      -0.00570245       0.01191681       0.02611341
O        3.92274004       0.00498139       3.97890960      -0.04379489      -0.03591548      -0.15705609
O        3.91088019       1.95539979       6.04472953      -0.05902122      -0.07957153       0.21705150
O        5.87340966       0.01198429       6.04959978      -0.06959591      -0.04447340       0.16771743
O        3.89618020       7.80469922       8.06792003       0.15634261       0.12594883       0.08114453
O        3.91177003       5.88168980       1.97076031       0.08048607      -0.13850147       0.09149065
O        5.86373959       3.89483957       1.95405994       0.04733144       0.10768346       0.10352341
O        3.91695020       3.90534001       3.97705009      -0.04114356       0.11496328       0.14326135
O        3.92735986       5.85919020       6.05463987      -0.09048792       0.17498362       0.06781259
O        5.85578971       3.90445017       6.07129015       0.13235988      -0.01076264      -0.03237302
O        3.92132976       3.91547966       8.06518007      -0.09016730      -0.03208994       0.03829041
40
Lattice="7.910819844827053 0.0 0.0 0.0 7.910819844827053 0.0 0.0 0.0 7.910819844827053" Properties=species:S:1:pos:R:3:forces:R:3 energy=-29615.070980130393 pbc="T T T"
Ba       3.98513957       3.94579986       0.02054044      -0.11121718       0.22150182      -0.00604646
Ba       3.94136980       0.00645444       3.98152987       0.12157950      -0.02264962      -0.14948034
Ba       0.02192009       3.95827997       3.96286983      -0.09051543       0.04660793       0.02532742
Ba       7.90636684       0.00137965       3.95751025       0.12203638       0.04235147       0.10662905
Ba       0.01196116       3.96920006       7.89939267      -0.05314085      -0.03103861       0.16704329
Ba       3.96773023       0.03580200       7.90964192       0.01907913      -0.22736651       0.15198871
Ba       3.95586005       3.95453973       3.97712987       0.08514234       0.13417122      -0.11141721
Ba       0.01461603       0.01855878       0.00180762      -0.07678985      -0.05808019       0.02509165
Ti       5.90969965       1.98631035       2.03045035      -0.12498878       0.19027757      -0.04052599
Ti       1.93300962       5.90484003       2.00491976       0.12220171       0.00304521      -0.02950238
Ti       1.96965016       1.94128988       5.95147985      -0.17283495       0.11716183      -0.16899141
Ti       5.94205015       5.94600003       5.94004002      -0.15260217      -0.17864308      -0.07992814
Ti       1.98970014       5.90111957       5.97778016      -0.03810246      -0.06825919      -0.02438666
Ti       5.91172956       1.98945965       5.97419973       0.07912416      -0.00685610       0.00494500
Ti       5.89101983       5.95707992       1.97795020       0.00001440      -0.25311971       0.18403699
Ti       1.94676021       1.94818969       1.97748029       0.14995394       0.00087212       0.16708725
O        2.05292974       2.00675033       3.96347975      -0.21973213      -0.01360216      -0.12102131
O        5.94685993       2.00689035       3.94319957       0.01793344      -0.06974889      -0.02319701
O        1.99616961       5.97324014       3.95949982       0.06226749      -0.02215417      -0.06410866
O        5.98784985       5.95930998       3.95423991      -0.09939962       0.02624531      -0.01236546
O        2.01465957       3.99745989       1.95245995      -0.06879218       0.13121368       0.16586495
O        2.03843000       3.99360020       5.94077968      -0.13804099       0.15916054       0.02846751
O        5.98945020       3.97252973       1.98754998      -0.08112782       0.13291523      -0.06223587
O        5.94951955       3.98764018       5.91735020       0.10051599      -0.08872260       0.02708914
O        3.98828966       2.01153004       1.96130029       0.31195323      -0.06319900       0.03229666
O        4.00449972       5.96328991       1.99190014       0.16578242      -0.03128904      -0.04370104
O        3.99516970       1.99024994       5.95611005       0.10328558       0.08477107      -0.02993407
O        4.00071993       5.94958996       5.94781952      -0.05905053       0.11459458      -0.07387911
O        5.97012012       5.94422009       7.89999231      -0.02472013       0.12178621       0.15661232
O        2.00934982       5.98965984       0.00608026       0.04134257      -0.15241448      -0.14211541
O        5.97119994       2.01958959       7.90266537       0.06042838      -0.11553432      -0.15380622
O        1.97748979       2.02825985       7.90952010       0.12740150      -0.10167556      -0.03365703
O        5.94676026       0.04341062       5.91521982       0.14613790      -0.12624194       0.10622281
O        5.98130997       0.02324990       1.97149971      -0.10900500       0.02255089      -0.01215566
O        2.01859994       0.04237984       5.95531976      -0.04345370      -0.03865885      -0.07880071
O        2.03465970       0.04980019       1.94748958      -0.14007936      -0.00685173       0.17686593
O        0.04061652       5.94501988       5.95558003       0.04225582       0.09524832      -0.07172555
O        0.05064032       1.99750970       5.90602982      -0.09468936       0.05113873       0.08615175
O        0.05295028       5.97219987       1.98475034       0.01667463      -0.04007861      -0.08426096
O        0.04624982       1.99116997       1.99385965       0.00317223       0.02057165       0.00552170
40
Lattice="7.95513132 0.0 0.0 0.0 7.95513132 0.0 0.0 0.0 7.95513132" Properties=species:S:1:pos:R:3:forces:R:3 energy=-29615.216352458818 pbc="T T T"
Ba       1.98878283       5.96634849       5.96634849       0.00000000       0.00000000       0.00000000
Ba       5.96634849       1.98878283       5.96634849       0.00000000       0.00000000       0.00000000
Ba       5.96634849       5.96634849       1.98878283       0.00000000       0.00000000       0.00000000
Ba       1.98878283       1.98878283       1.98878283       0.00000000       0.00000000       0.00000000
Ba       5.96634849       1.98878283       1.98878283       0.00000000       0.00000000       0.00000000
Ba       1.98878283       5.96634849       1.98878283       0.00000000       0.00000000       0.00000000
Ba       1.98878283       1.98878283       5.96634849       0.00000000       0.00000000       0.00000000
Ba       5.96634849       5.96634849       5.96634849       0.00000000       0.00000000       0.00000000
Ti       0.00000000       3.97756566       0.00000000       0.00000000       0.00000000       0.00000000
Ti       3.97756566       0.00000000       0.00000000       0.00000000       0.00000000       0.00000000
Ti       0.00000000       0.00000000       3.97756566       0.00000000       0.00000000       0.00000000
Ti       3.97756566       0.00000000       3.97756566       0.00000000       0.00000000       0.00000000
Ti       0.00000000       3.97756566       3.97756566       0.00000000       0.00000000       0.00000000
Ti       3.97756566       3.97756566       0.00000000       0.00000000       0.00000000       0.00000000
Ti       3.97756566       3.97756566       3.97756566       0.00000000       0.00000000       0.00000000
Ti       0.00000000       0.00000000       0.00000000       0.00000000       0.00000000       0.00000000
O        0.00000000       3.97756566       5.96643768       0.00000000       0.00000000      -0.00080167
O        0.00000000       3.97756566       1.98869364       0.00000000       0.00000000       0.00080167
O        3.97756566       5.96643768       0.00000000       0.00000000      -0.00080167       0.00000000
O        3.97756566       1.98869364       0.00000000       0.00000000       0.00080167       0.00000000
O        5.96643768       0.00000000       3.97756566      -0.00080167       0.00000000       0.00000000
O        1.98869364       0.00000000       3.97756566       0.00080167       0.00000000       0.00000000
O        3.97756566       0.00000000       1.98887205       0.00000000       0.00000000      -0.00080218
O        3.97756566       0.00000000       5.96625927       0.00000000       0.00000000       0.00080218
O        0.00000000       1.98887205       3.97756566       0.00000000      -0.00080218       0.00000000
O        0.00000000       5.96625927       3.97756566       0.00000000       0.00080218       0.00000000
O        1.98887205       3.97756566       0.00000000      -0.00080218       0.00000000       0.00000000
O        5.96625927       3.97756566       0.00000000       0.00080218       0.00000000       0.00000000
O        3.97756566       3.97756566       5.96634596       0.00000000       0.00000000       0.00007533
O        3.97756566       3.97756566       1.98878537       0.00000000       0.00000000      -0.00007533
O        3.97756566       5.96634596       3.97756566       0.00000000       0.00007533       0.00000000
O        3.97756566       1.98878537       3.97756566       0.00000000      -0.00007533       0.00000000
O        5.96634596       3.97756566       3.97756566       0.00007533       0.00000000       0.00000000
O        1.98878537       3.97756566       3.97756566      -0.00007533       0.00000000       0.00000000
O        0.00000000       0.00000000       1.98878031       0.00000000       0.00000000       0.00007508
O        0.00000000       0.00000000       5.96635101       0.00000000       0.00000000      -0.00007508
O        0.00000000       1.98878031       0.00000000       0.00000000       0.00007508       0.00000000
O        0.00000000       5.96635101       0.00000000       0.00000000      -0.00007508       0.00000000
O        1.98878031       0.00000000       0.00000000       0.00007508       0.00000000       0.00000000
O        5.96635101       0.00000000       0.00000000      -0.00007508       0.00000000       0.00000000
40
Lattice="7.802730108248759 0.0 0.0 0.0 7.802730108248759 0.0 0.0 0.0 8.185001461712082" Properties=species:S:1:pos:R:3:forces:R:3 energy=-29614.554180847736 pbc="T T T"
Ba       1.93372017       1.97401035       0.05413144       0.25416049       0.20852881      -0.26711139
Ba       1.92175000       1.89279017       4.13241013       0.64049471       0.67195395      -0.29826442
Ba       1.97494980       5.89056030       8.17533544      -0.15513419      -0.41253222       0.19895710
Ba       1.93645035       5.84642025       4.05638033       0.22940437      -0.03399255       0.18182919
Ba       5.80382047       1.94862027       8.14091604       0.45000785       0.14550104       0.15679564
Ba       5.92805007       1.94676009       4.06905977      -0.60124502       0.01453445       0.43339029
Ba       5.80996980       5.82461006       0.03200212       0.57522828       0.17270871      -0.29210303
Ba       5.81473024       5.82507042       4.12839017       0.31111968       0.31707616       0.06314706
Ti       0.00150437       7.77585360       2.12924020       0.20930528       0.08365984      -0.04610039
Ti       0.05369293       0.00509752       6.23926977      -0.79019230      -0.24643767      -0.96584519
Ti       0.00144663       3.88522979       2.13149987       0.58904873       0.00495786      -0.33043818
Ti       7.79313977       3.90525003       6.20102000      -0.03221052       0.21001953       0.10079804
Ti       3.91542011       0.00439918       2.16060016      -0.30146622       0.02545983      -0.24413884
Ti       3.88865987       0.02763961       6.26562037       0.57045683       0.12259817      -0.72483049
Ti       3.92738014       3.88396028       2.11818998      -0.72964694       0.02915528       0.12082051
Ti       3.85141978       3.94787011       6.21029979       0.29920133      -0.44278510      -0.04044500
O        0.02415023       2.00564028       1.91992026      -0.15409470      -0.80816277       0.24890798
O        1.98118028       0.05216983       1.91632008      -0.27780204      -0.38066905       0.30634951
O        0.04618982       0.02332002       3.97567982      -0.13989115      -0.23443447      -0.72529252
O        0.09575042       1.96592984       6.02933029      -0.48941771       0.03233599       0.14821021
O        1.97716967       0.03167986       6.06008007       0.14535989      -0.27875798       0.17615399
O        0.06981025       0.03029020       8.01077976      -0.36370645      -0.11932875       1.18979110
O        0.01888027       5.82684008       1.92330041      -0.15386818       0.83744532       0.20375684
O        1.97135976       3.93771017       1.92163999      -0.01074515      -0.08355494       0.09216942
O        0.11526193       3.89092968       3.96120029      -0.69177176       0.10119194       0.00513938
O        0.03313819       5.85742990       6.03457997       0.02292267       0.11617375       0.02465097
O        1.99536018       3.95953987       6.05934037      -0.47630740      -0.19607516       0.03324334
O        7.80116878       3.90539985       8.01647029      -0.00621230       0.01344044       0.28463680
O        3.90654997       1.93563964       1.97390969       0.18377140       0.20626187      -0.08756457
O        5.91040030       0.02687026       1.97889018      -0.17558938      -0.04895123       0.05545792
O        3.85863028       0.05220495       3.98506026       0.47409163      -0.30641919      -0.19185135
O        3.86847030       1.97513004       6.10699008       0.29763887      -0.28930824      -0.10766880
O        5.88218016       7.80037056       6.04560991      -0.25274715       0.17001780       0.10324959
O        3.97102003       7.78377181       8.08883047      -0.31919603       0.09952123      -0.13001092
O        3.94001978       5.86320002       1.95564975      -0.00968817       0.25237280       0.24598592
O        5.84311970       3.86267990       2.00481007       0.45556991       0.23126199      -0.10184551
O        3.90517981       3.93207036       3.95099978      -0.00920044      -0.26153956       0.13648084
O        3.86161014       5.86773029       6.01910013       0.31431685       0.32519621       0.24343693
O        5.86056972       3.92798017       6.05377000       0.24895992      -0.16806170      -0.19470244
O        3.94006972       3.93957971       8.06355041      -0.13092546      -0.08036240      -0.00514581
40
Lattice="8.00504990114136 0.0 0.0 0.0 8.00504990114136 0.0 0.0 0.0 8.00504990114136" Properties=species:S:1:pos:R:3:forces:R:3 energy=-29610.2406220731 pbc="T T T"
Ba       2.00317968       1.88661975       1.73835022      -0.84463181       3.06294260       2.04149988
Ba       6.13871014       5.81951998       2.19944029      -1.32241374      -0.13689787       0.17053716
Ba       6.03067959       1.83323007       6.18376016      -0.49668777       0.46214962      -0.61295151
Ba       2.01861982       6.22682973       5.86146004       0.53726620      -0.69708289      -0.05863606
Ba       5.97068975       2.05665022       1.82811965       0.52255024       1.03157467       0.56988064
Ba       1.91949009       5.88458983       2.05019975       0.71167904      -0.32899887       0.63267984
Ba       2.07112975       2.03609965       6.03818993       0.14399849      -0.67426460       0.74294237
Ba       5.98291026       6.11906975       5.90769961      -0.59769304      -0.22015868      -0.28200939
Ti       3.76359022       3.84955005       4.02571958       2.12776836       1.79351209       1.03044621
Ti       7.99727620       4.05765013       7.65512596       1.32409550      -0.69624008       4.03701274
Ti       3.91173007       7.85712378       0.04510205      -0.29575348      -0.21824552       0.04047071
Ti       0.05193917       0.01797854       3.80051031       1.00366226       2.08409251       2.26656396
Ti       4.16594965       0.22062478       3.75428995      -1.27157558      -2.13762211       1.81560815
Ti       7.90023898       3.69109969       4.14383970       0.99005109       0.38131954      -1.50384184
Ti       4.06033982       4.10278020       7.94794027      -0.93074577      -0.99004750      -1.40202101
Ti       7.88819859       7.70581393       0.13121878       0.68683679       3.98077938      -1.16373451
O        3.85682023       4.03515994       2.26272982       1.13675438       0.28388373      -2.30529223
O        3.97371958       4.13804004       6.04202995       0.13655617       0.37737007       0.98186522
O        4.09693011       2.11885986       4.19002003      -0.44696932      -1.66706369      -0.14476776
O        4.08980961       6.37359992       4.00091033      -0.14499042      -0.37694583      -0.03288287
O        2.02977967       4.05078980       4.11172984      -1.19702541       0.09092192       0.89393837
O        6.11944999       3.81149004       4.21036967      -1.14937773       0.74147221      -0.25084454
O        0.12415912       3.91577022       2.38282958      -0.75734775       0.12563773      -1.13059042
O        0.00451565       4.37349017       5.95910964       0.17400969       0.10101453      -0.47244175
O        1.98386030       0.28169530       3.98200961       0.42697153      -1.07770514      -0.39871254
O        6.03093975       0.26621674       4.08650033       0.19932040      -0.26839257      -0.43352887
O        3.89238987       2.25140027       0.02237411       0.99252244      -0.64759224       0.12716213
O        3.83766015       5.97852029       0.17974939       0.29641683       1.80304806      -0.00210805
O        4.07750985       0.25825892       1.98183022       0.04627497      -0.15850697      -0.06463805
O        3.93112951       0.02059059       6.25454962       0.41707150       0.33580356       0.04925128
O        0.18790734       1.93068996       4.41639003      -1.43119172       0.41453048      -0.24007187
O        7.98950570       6.28053961       4.05104036      -0.12426887      -1.22069627      -0.20651975
O        1.86716988       4.08047973       0.00609104      -0.13795820       0.61078947      -0.39551717
O        5.94386002       4.26374974       7.99307355       0.34055753      -0.51753941       0.16397879
O        7.94761847       0.29170802       2.06439030      -0.34596044      -0.56061670      -1.02028881
O        0.14776522       7.87881106       6.35270994      -1.05212935       0.15016631      -0.17435859
O        7.94639210       2.25697979       7.90861146      -0.46223344       0.02358139      -0.12766401
O        7.94415789       6.02644012       0.38510134       0.06661703      -2.59670826      -0.51963615
O        1.93312989       0.07422602       0.34175960       0.93286385      -2.10303100      -1.80477481
O        5.97133015       7.99438717       0.23795571      -0.20489070      -0.56023309      -0.81600438
40
Lattice="7.954119769900582 0.0 0.0 -0.021802242289297495 7.954087953421502 0.0 -0.021802242289297495 0.02174656345090819 7.954056136942422" Properties=species:S:1:pos:R:3:forces:R:3 energy=-29614.433594280417 pbc="T T T"
Ba       4.03309745       0.03495597       0.03011032      -0.04766337       0.02878607       0.01786454
Ba       4.01926365       0.01134019       3.99144014      -0.05262123       0.39442342       0.17876109
Ba       4.08908412       3.98135591       0.07290030      -0.62775746       0.30137263       0.00350776
Ba       3.95325957       4.02481960       4.05461017       0.29144843       0.07315766      -0.44648518
Ba       7.94721480       0.08729567       0.02309001       0.55884213      -0.34752753      -0.07334097
Ba       0.05388678       0.01648014       4.05402952       0.12091924       0.36715867      -0.13625741
Ba       7.90702979       3.93923566       0.03756969       0.83300091       0.62667400      -0.16772360
Ba      -0.00462134       4.06335970       3.93617014       0.32732586      -0.09835961       0.50584526
O        2.12182985       4.01815007       2.07148982      -0.44834254       0.09368586      -0.24203131
O        2.04245012       4.02166023       5.97046013       0.35359456       0.60272263       0.42565230
O        2.01456378       0.10825000       1.98908991       0.32127528      -0.62528663       0.41477499
O        2.01813359       0.06516015       6.00998972       0.18528604      -0.08512434       0.10574947
O        6.07415004       4.00305952       1.93233965      -0.43627275      -0.56662537       0.22728398
O        5.90970975       4.05706958       5.96310019       0.48193992      -0.26166708       0.15868257
O        6.04784974       7.94736990       1.95376010      -0.20820613       0.85973833       0.35357194
O        6.10505339       0.09084002       5.92436999      -0.48286474      -0.49565830      -0.03788598
O        2.10546982       2.05921980       4.04396994      -0.27015712      -0.18233595      -0.47652389
O        1.95179384       2.05413552       0.05158963       0.64224691       0.11754364      -0.07308849
O        2.05411007       6.03314973       4.02292016       0.01479310       0.06883023       0.19394988
O        2.10055417       6.06375560       0.12585963      -0.10253174      -0.51205962      -0.97668650
O        6.01188996       2.13715028       4.01876015      -0.21968045      -0.44728762      -0.49910666
O        5.99504950       1.97860956       7.95213999       0.04879980       0.58936498       0.31310894
O        5.93844003       6.04900945       3.92605011       0.62062445      -0.27970029       0.60783990
O        6.02965947       6.05957968       7.91257938      -0.24688324      -0.17314194       0.06258888
O        0.05362906       2.00377958       2.09218962      -0.06877984       0.25136107      -0.12697959
O        0.05036230       2.05634995       6.05209963      -0.27873252       0.29032974      -0.48841524
O        0.05325681       6.02263996       1.98552965       0.51693032      -0.16754105       0.25121812
O        0.09473993       5.94873982       5.98367988       0.06632341       0.10832495       0.01151443
O        4.05659949       1.97515986       1.99627964       0.31513009       0.24669632       0.13272729
O        4.02892950       1.95844985       6.08836962      -0.09906872       0.46914611      -0.32110559
O        4.06452975       6.03296997       2.00962029      -0.20164031      -0.05586442      -0.10497891
O        4.08081979       6.04213948       5.96147993      -0.71807235       0.02007697       0.25582296
Ti       2.01569962       2.05178985       2.09111979      -0.23409097      -0.07984252       0.42817121
Ti       2.06846964       1.98269003       6.11393018      -0.81551870      -0.20824007      -0.71789057