192
Lattice="13.066375 0.0 0.0 -1e-06 13.066375 0.0 -1e-06 -1e-06 13.066375" Properties=species:S:1:pos:R:3:force:R:3 TotEnergy=-30029.601763133225 cutoff=-1.0 nneightol=1.2 CONVERTED_ID=1298 pbc="T T T"
O       12.64543030      -2.82263124     -15.46091765      -0.73374148      -0.01953370      -1.50247568
H       11.89812625      -2.74155071     -16.09106188       0.10830927       0.13022536       0.72198640
H       13.26149841      -3.37739946     -16.00020215       0.38951805      -0.03940216       0.77080136
O       25.27027561      24.43639816       0.35318398      -0.62635164      -5.84020989      -6.84844237
H       25.31266271      25.21264821       0.74189057       0.70286253       6.34707721       2.48271398
H       25.35134556      24.55181171      -0.71252653       0.05939300      -0.39063699       4.16623133
O        5.36733861       1.52952323       8.14218516      -1.67676563      -1.59301965       0.15951948
H        5.85688045       1.94819236       8.86519998      -0.25293075      -0.47125291       0.53674868
H        4.66960788       0.81533508       8.43852439       2.45793883       1.95884653      -0.54527960
O       -2.93321340      -5.70437158      -2.06760649      -0.92283585       1.70278006       1.24832211
H       -2.11669297      -6.19126753      -2.36016211      -0.28720870       1.53401797       0.26790743
H       -2.98088698      -4.75015394      -1.60816954       1.40556051      -3.11588418      -1.33525626
O        3.38407768      16.26336198      10.69520061       0.59190399       0.68365124      -0.94755958
H        3.89453789      17.07395563      10.80886787      -0.21160438       0.18324665       1.52078193
H        3.42589326      16.37501837       9.74289330      -0.65737971      -1.10585213      -0.78042243
O       -1.96962404       4.40010322       2.94610416      -2.95582786       0.86846730       0.19323693
H       -2.32842735       4.61702883       3.87909650       0.65334308      -0.73944419      -2.51328440
H       -2.77761414       4.31724465       2.25013559       1.58515208      -0.06196051       2.29071941
O       23.88134419      13.33156147       7.30634975       1.80030201      -0.02852639       3.70227059
H       24.78475552      13.75828998       7.41726529      -0.90032327      -0.82670744      -0.69127200
H       23.53219306      13.41421895       6.46532841      -0.50845318       0.23892081      -2.90959942
O       -0.64325723     -14.98471108       3.92837878      -0.73368492      -1.30749863      -3.03262157
H       -0.55697489     -15.69682485       3.17299418       0.54271878       1.30634163       2.15628670
H       -1.35569910     -14.46638200       3.50380932       0.46261863       0.07080613       0.98098392
O       18.42494505     -18.37583740       9.85613722      -4.66551390       1.33546195      -1.10753877
H       19.30015124     -18.54400992       9.94424523       4.08941191      -1.32945585       1.05250173
H       17.81485664     -18.88326543      10.41489544       0.71382571       0.13888072      -0.04857277
O        4.83259975     -14.17898586     -13.56820952       0.66649170      -3.25168986       1.34222909
H        5.77131250     -14.48098729     -13.72235884      -0.82920655       0.81601165      -0.22270589
H        4.58696627     -14.93793182     -12.92383043       0.43611107       2.02698591      -0.84586730
O       -4.81121570       2.19039148       4.33023066       2.71470978       1.31667746      -2.69446491
H       -4.90639351       2.05848877       3.34761737      -0.33151241       0.43307717       1.13880853
H       -5.49905082       1.76712909       4.75293741      -2.27451117      -1.54393729       1.28801995
O       -5.85185327      15.23765779      27.76232985      -2.93325357      -1.79628595      -0.68071504
H       -6.93275064      14.99428919      28.00818558       3.68348096       1.05183325      -1.38370099
H       -5.56249917      14.84871254      26.85283298      -1.41648770       0.17086113       2.21747896
O        7.43372271     -15.57654287      -6.91692824       1.49841848       0.54636975      -4.63330826
H        7.83621489     -16.40586940      -7.23538709       0.15926546       0.61871032      -1.06741928
H        7.21215621     -15.85541926      -6.10686377      -1.70813310      -0.82727822       5.68563516
O       15.41884806       7.48679918      20.53091159       2.60923284      -0.92059385      -0.09585999
H       14.76631965       6.98550961      20.06814612      -1.26490058      -0.82979276      -0.62807427
H       16.21483643       6.83829251      20.46291232      -1.18530951       1.63185360       0.65338936
O       -0.25643134       0.99778480       0.95212739       1.50308246       0.83864764      -0.20752661
H        0.08169544       1.33199725       1.79520723      -1.00521914       0.00704277       1.22145922
H        0.45881305       1.49934954       0.51064278      -0.69217188      -0.71535809      -1.04516381
O      -16.15043556      12.55615811      17.73955472      -4.01243307       0.04849975       0.53673840
H      -16.71914231      13.30330341      17.32319809       1.39123946      -1.74681277       1.16891101
H      -16.87297412      11.96564926      18.22290519       2.43173929       1.81856713      -1.71378952
O      -17.86354094       6.26270646      13.02225739      -2.72138437      -1.53550407      -2.27382726
H      -18.60412445       5.90937483      12.25008201       1.60521183       0.96731594       2.60244512
H      -17.16492119       6.29779090      12.38174130       1.42704979       0.61880802      -0.40643745
O       -9.97795382      34.26676446     -11.48647929       0.91789419       1.16682328       3.10056041
H       -9.67293607      33.90147343     -10.61100852      -0.44849556       1.35297116      -0.36197433
H      -10.06812561      33.42055718     -11.81774423      -1.02093373      -2.49247389      -2.41358730
O       36.51899558      10.89078451      21.81437800      -1.04788918       1.30639819      -0.34839428
H       36.75871286      11.81425166      21.45014533      -1.06414369      -1.62590407       0.46933641
H       35.51689270      10.80193565      21.88041932       2.26698812       0.43385055      -0.26845713
O       30.55273420     -11.00170005       2.39843750      -1.58540919      -3.31284613      -0.18537707
H       30.61803467     -11.65290553       3.16384471       0.06375462       1.44162795      -0.38412387
H       29.84707639     -11.55506066       1.84262680       2.00845854       1.99623551       0.48742978
O       16.38184475       9.80401327      -6.87454115      -0.11691424      -0.15087749       0.59818263
H       17.00061167       9.64822350      -7.57427217       0.57112433       0.19100830      -0.85189397
H       16.22467912       8.90726957      -6.52904135      -0.68858262       0.27733875       0.45327216
O       -9.31997487       3.54060301      33.44907983       0.05727801      -1.90738332       0.66006394
H       -9.03792342       4.44114620      33.49210194       0.72136933       0.94263335      -0.01169852
H       -8.60569147       2.89969003      33.75277463      -0.80878685       0.96260568      -0.62330745
O        3.17334344       1.13243394       0.08931823       0.23581337       0.81460782      -0.79463549
H        3.07582666       1.93705847      -0.51232715       0.68657202      -2.12944438       0.94231453
H        3.85647418       0.47270024      -0.21488617      -0.92381287       1.28824106      -0.07560072
O       23.50478168       1.94969522      12.99003050      -1.50399777       0.10614286      -1.64507936
H       23.17785600       2.61787670      13.56529905      -0.80482735       1.28613276       0.64914190
H       24.29891792       1.68835577      13.39368688       2.27399181      -1.06708503       0.81397533
O        0.10551053      32.49132200      15.57887125       0.74590280       3.98903603       0.74722435
H       -0.72191943      32.10576348      15.49414998      -2.37095326      -2.32326958      -0.05883096
H       -0.22901096      33.45453036      15.64427756       1.59638780      -1.80097050      -0.41114874
O        6.05241143      20.26791052       5.02742163      -4.17216544      -6.07212342       2.27532878
H        5.26115921      19.97469343       4.49127516       0.91506598       0.54778386       0.95337027
H        6.43347194      20.98118848       4.71206377       2.83375187       5.23569207      -2.73439415
O       -9.59615246      10.90766526      10.36414735       2.18889343       1.65467471       3.44618869
H       -9.97731881      10.04939274      10.40134850      -0.87440140      -1.36456169      -0.31378208
H       -9.12888898      11.05313608      11.35254454      -1.37832738       0.09972642      -3.72651609
O       17.21641013      17.99869280      28.20271113      -0.50867275      -2.94876246      -0.53856388
H       17.22360694      16.93732207      28.21525263       0.25116595       2.93889971       0.51791278
H       16.44344098      18.16321400      27.63500981       0.00440893      -0.14363418       0.00466501
O        6.71023162      18.44732924      10.88819154      -1.78416062      -2.11183746       3.50220275
H        7.21765965      18.88315959      10.27365804       2.11857890       1.69522101      -2.79111269
H        6.94809678      17.49592154      10.87961887      -0.01247139       0.27549835      -0.63313421
O        1.05389346     -13.58985287      10.43368123       2.32941451      -1.15064075      -1.18629681
H        0.52050929     -14.43383760      10.50644310       0.87837633       0.68742562      -0.04513263
H        2.04940809     -13.87724901      10.19994366      -3.30015516       0.34570696       1.08869259
O       -0.00847742       9.26965012       1.83980628       2.04784270      -2.70938760       2.62456176
H        0.94434848       9.16873603       1.66105022      -0.27327744      -0.58057057       0.74718835
H       -0.16747771       9.87793933       1.19759153      -1.86098519       3.13109997      -3.26150119
O        0.42741008       0.65217916       7.74403222       0.70375727      -1.00983170       0.70315564
H        1.03889658       0.21235141       7.08086734      -1.07010865       0.21262768       1.18297495
H        0.49172575       0.19270888       8.65278825       0.43231715       0.78719986      -1.83107297
O      -18.85241440      28.84873067     -15.91055953       2.05300033       0.19047711      -2.77351606
H      -17.97228686      28.59213264     -16.52736849      -2.72924166       0.54448770       2.41405524
H      -18.95481019      28.34384269     -15.10912064       0.79104623      -0.97355343       0.12288794
O        4.60828682      26.42589280      -8.29379443       4.12158155      -0.33003197      -0.78049957
H        5.44475724      26.54718022      -7.69905216      -1.29253995      -0.19155749      -1.56524145
H        3.94140712      26.49876051      -7.68360018      -3.08776145       0.27824121       1.84387193
O      -18.19099580      21.58392133       1.45866640       0.92447107       2.82905703       1.69339039
H      -17.93074645      20.76591919       1.05815333      -1.41887882      -0.97557946      -0.93580449
H      -19.07234045      22.02440844       1.52598303       0.18947901      -1.48820605      -0.83101661
O       11.43895918      20.28431501       6.91497029      -3.15112373       0.97737924      -0.08727045
H       11.58136077      21.30393366       6.79146032      -0.50491739      -2.10109539      -0.04757313
H       10.39494546      20.07539585       6.90041791       3.61341325       1.10397008      -0.13384239
O       -9.44247940      -6.80389599       4.30549162      -1.17215060      -1.09573227      -2.09742900
H       -9.28129202      -7.34836642       3.38757025      -0.58880324       0.70054339       2.41475972
H      -10.39155873      -6.93391483       4.59196171       1.78342529       0.13733137      -0.60355109
O      -25.43453222       2.10612530      11.25163045      -7.84315084       0.50292119       4.56416100
H      -25.34340790       1.21531897      11.27904183       0.72315882      -4.32077522      -0.38290877
H      -24.80063084       2.49930397      10.86040973       7.27977067       3.90821083      -4.19602014
O      -12.44503089      -7.40535881      19.41635855       0.66681052       0.88299403       0.62963236
H      -12.23388919      -8.29755158      19.07535676      -0.69596683       0.48339777      -0.49522279
H      -13.07951437      -6.77124576      19.03662099      -0.00850315      -1.56534944      -0.25064915
O        8.15028157       8.56557984      17.42204840       0.35645571       0.65863441      -0.47059214
H        8.93446928       8.11022285      17.65599764       0.95600308      -0.98994165       1.44372597
H        8.36242871       8.60436853      16.48773311      -0.91725656       0.57971696      -1.16648903
O      -11.18670040      -0.72987825      18.47828611      -0.35407333      -0.24292607      -0.63573102
H      -10.66821257      -1.52712605      18.67910886      -0.66423941       0.04733864      -0.11364945
H      -11.84674314      -0.98341764      17.78823903       0.71303896       0.09104637       0.97604740
O       22.69503471       4.00474963      19.09154958      -1.79931471      -2.12238927      -2.71056516
H       22.22258530       3.31821628      18.40965183       1.35110968       2.32492023       1.54473433
H       22.59380311       3.45698242      19.86409539       0.27849472      -0.09890263       0.97363571
O       -4.97554639     -18.87792074      -3.72662467       0.33879429      -0.00833140       0.72217666
H       -4.09095789     -18.86754887      -3.25351379      -0.70944970       0.15295494      -0.20328532
H       -4.82189979     -19.09774095      -4.64425500       0.09206453      -0.24587719      -0.59154918
O       27.64061909     -10.03663957      -7.21003950       2.71337795      -0.09764382       1.92125700
H       28.56313372     -10.00975737      -6.65519719      -2.11403318       0.63380783      -1.96417385
H       27.19330560     -10.59502736      -6.57275138      -0.79150903      -0.19107309      -0.11828618
O        6.96926387       0.34402022       5.89455787       0.15823444       0.17199859       2.33616109
H        6.91010186       0.59992291       6.86930229      -0.17308976      -0.38797384      -1.81967270
H        7.22453895      -0.59115445       5.89334076      -0.06767298       0.15708362       0.09161818
O      -18.62021144      -2.03114089      24.54964209       2.40631107      -2.07084379       0.63745366
H      -18.82579678      -2.33972529      23.63458885      -0.00441818       0.34591008       0.62678358
H      -17.82464642      -2.65755970      24.87730861      -2.36838216       1.91363110      -0.97728153
O        4.88410457      -6.75822800      -5.54921682       0.02217114      -0.12952756      -2.01840357
H        5.20116639      -6.31827006      -4.74055467       0.08632325       0.44309830      -0.64638567
H        5.23333507      -6.39134944      -6.44125085      -0.31749836      -0.45975802       2.41449747
O       12.15218422       9.78707960       6.31858757      -2.32479681       3.34102542       3.70837439
H       11.77461628      10.31519845       7.24411851       1.54112450      -2.39440172      -3.87803636
H       11.89278156      10.46336807       5.63018094       0.72237720      -1.13079697       0.42533815
O        4.43175860      11.87341367      -5.10165990       0.23590131      -1.16562000      -2.71873099
H        4.06190606      11.41646915      -4.34855606      -0.70085707      -0.34147441       0.85906220
H        4.22329982      11.23866561      -5.89688625       0.17364512       1.42733261       2.16573293
O       13.21900548      29.02664004      15.90510900       1.64823667      -1.05511912       0.90931185
H       13.70399640      28.93953747      16.78042103      -1.54810762       0.60756201      -1.48703877
H       12.32982901      29.43564111      15.92611734       0.53707778       0.17160110       0.88689697
O       -4.10051483       3.99022372       1.21240849       3.52842800       4.99555615      -1.20352835
H       -4.29834244       5.03262345       0.97218850      -0.28157027      -3.44290282       0.13553983
H       -4.83862708       3.50298380       1.45779326      -2.91409371      -1.10117786       0.95659444
O        6.56999966     -15.80699955       8.89901440       0.93684322       0.81610421      -0.30339123
H        5.89122405     -15.11356573       8.71544283       0.04547253      -1.12677063       0.08701591
H        6.22238315     -16.68866170       9.04945948      -0.83239472       0.31034503       0.07072385
O        1.65242463       8.72078752      22.82431271      -0.11530473       0.55430418      -1.87753281
H        1.54069416       7.95395682      23.38116589      -0.12863487      -0.89590611       0.29596331
H        1.67888349       8.32782052      21.88629318       0.46353806       0.55560001       1.72288609
O       22.91511952      22.85294119      -0.32201545      -1.21165818      -0.86684750      -0.54627205
H       23.36100423      23.68247939      -0.18107968       0.42908373       0.19245120       0.58762053
H       22.27412716      22.64111156       0.38846105       0.50748593       0.18622502       0.02137615
O       11.96183918       5.99319650     -16.66627750      -0.12294142      -0.19061595      -2.62741568
H       11.79472502       5.02690833     -16.57737573      -0.06584956       0.71406226      -0.05009589
H       11.97030602       6.24497902     -17.68504947      -0.21656301      -0.42789434       2.51827748
O       -7.75615038      22.88384514       1.76380585       0.78749297       0.92224964       4.03016340
H       -8.57563421      22.37996260       1.68921303       0.12834228      -0.20961692      -0.11236082
H       -7.66772487      23.08884840       2.90891359      -0.51036299      -0.48111720      -3.98165182
O        5.20647403     -15.66830220      17.50819845       1.18966496       2.09607146       1.37006385
H        5.93699788     -15.58569764      18.22264060      -0.93406129      -0.66039304      -1.56034607
H        4.89739221     -14.70895684      17.51629486       0.06019724      -1.13911192      -0.38095576
O        1.76133460      18.69641296       0.57801498      -2.51225082      -0.76211104      -2.13711141
H        1.16449149      18.82553220       1.37979783       0.41283641       0.14168785      -1.09832908
H        1.09147562      18.51067176      -0.24702151       2.75605312       0.89063535       2.96704815
O       -4.67106841      -6.54047157       6.54221786       0.29882546      -1.68153246      -0.99981468
H       -4.37135302      -7.46203369       6.20793661      -0.38923111       1.53666621       0.90521865
H       -5.51963582      -6.39695871       6.07648900       0.44896093      -0.06039728       0.18525211
O       -3.53516307       2.26197857       8.47741892      -1.82966915       1.10188235       0.26962750
H       -2.87086575       2.68327772       9.00834241       0.91608413       0.14716636       0.47270404
H       -3.33475836       1.33587083       8.41809815       0.71524496      -0.71476160      -0.36660335
O       14.28291626      -6.86967272      -2.45764714       2.81538391      -1.23503465       0.37442567
H       13.47967818      -7.04504204      -2.98524740       0.20992956      -0.21164346      -0.37207568
H       15.12213840      -7.39218229      -2.73928583      -2.82368343       1.38791760       0.53325712
O       11.49124189       3.48392284      23.58780959      -4.69304527       1.34733016      -0.89089246
H       10.81320713       3.22980665      24.25626624       1.03963593       0.20953875      -0.52984784
H       12.27569419       3.14015874      23.87795745       3.36551261      -1.92945367       1.32239560
O        8.06788868      13.77363612      25.39875984       0.65275172      -2.36684978      -0.08300087
H        8.94939207      14.15316201      25.66064964      -0.41797605      -0.93493032      -0.50162227
H        8.13662879      12.72311352      25.25376528      -0.25937754       3.48383479       0.29233754
O       -9.14656350       5.80697904      11.48769640      -9.73651137       2.23518358       2.11511305
H       -8.31755448       5.74644117      11.64142238       9.32158670      -0.84873665       1.45788246
H       -9.53222785       6.10908631      12.43381234       0.74187131      -1.27681508      -3.52854627
192
Lattice="12.749514 0.0 0.0 -1e-06 12.749514 0.0 -1e-06 -1e-06 12.749514" Properties=species:S:1:pos:R:3:force:R:3 TotEnergy=-30025.457469007957 cutoff=-1.0 nneightol=1.2 CONVERTED_ID=1175 pbc="T T T"
O       11.58024949       0.72498865     -16.52445801      -0.97465387      -0.75413547       1.86521723
H       11.81181744       0.78436763     -15.53965922       0.39663486       0.32634758      -1.67838029
H       10.76372906       0.18189091     -16.44460517       0.64889507       0.29650427      -0.50923119
O       26.36344989      24.79401612       4.85561367       2.02245562      -2.63123634      -0.14050771
H       26.70196456      23.84678891       4.58326732      -0.98568904       2.92085571       0.58663323
H       25.49327089      24.94361452       4.49529691      -0.49881257      -0.09458524      -0.50053726
O        4.55044246      -0.28422796       6.68409027      -0.90766634       0.39404319       0.62174936
H        4.83529856      -1.07390165       7.11166546       0.53881585      -1.16297176       0.19309449
H        4.04536927       0.15737889       7.41435482       0.47706257       0.33834898      -0.69970521
O       -2.84938115      -4.43740492       0.99063032       1.18784462      -2.75887105       0.67069288
H       -2.61852230      -3.73749926       0.44086071       0.59413571       2.17408902      -1.65801715
H       -3.60226274      -4.18081218       1.49332221      -1.63788027       0.63756165       0.37833889
O        4.24721334      15.84552365      10.73478306       2.12500665      -0.68777529      -0.72945802
H        4.32293330      16.65564104      11.23829518       0.09565224      -0.12547447       0.08994799
H        5.19970057      15.68020869      10.36293024      -2.09063614       0.75917484       0.26485347
O       -1.38442284       6.65292173       5.13221460      -0.14604176       1.07290087       2.29623185
H       -1.16714796       6.34425266       4.30304153      -0.31276907      -1.84473068      -3.60590049
H       -0.51785864       7.04266075       5.23280589       0.50999121       1.25631824       0.93107881
O       22.81806842      12.30516936       5.78538861       0.21763156       2.59595052      -2.25235855
H       23.17335800      13.23964339       5.97626283      -0.69821912      -2.03539856      -0.15483493
H       22.49505865      12.44190875       4.78045992       0.29224961      -0.80272933       3.30715885
O       -0.99380009     -15.77509016       6.81807794      -3.72314795       4.57878544       0.82365297
H       -0.45485215     -16.08402382       6.13538642       1.90621604      -0.77239545      -2.17517917
H       -1.49262899     -14.86474661       6.47252522       2.06904916      -3.36146055       0.95421874
O       15.45499087     -17.88148005       9.66319921       2.50760740      -0.04106669       1.58906016
H       16.20885672     -18.30376347      10.29202049      -2.09760898       1.18680075      -1.71154752
H       15.70476251     -16.92102341       9.71442357      -0.85163171      -0.90600541      -0.32168823
O        3.25136004     -14.66133089     -13.33013270       2.06744993       0.36551628      -0.87928650
H        4.07719399     -15.24898218     -13.27065318      -1.49387791       1.09344399       0.34611011
H        2.57298131     -14.89321634     -12.72210808      -0.53344224      -1.09837536       0.78257702
O       -5.74231359       1.54765284       2.85520210       0.05776549       1.79924271      -2.83686290
H       -6.46929724       1.30210932       2.21823678       0.60828706      -0.53184816       1.46463932
H       -5.43554956       2.35845287       2.31344635      -0.03669324      -1.47314967       1.41130950
O       -5.38575398      16.01581288      25.98963911       3.63605953       3.41236840       1.39745639
H       -5.29129585      15.31565851      25.36113534       0.29916279      -0.48534153      -1.04739552
H       -4.35831409      16.55647323      26.03186745      -4.38789644      -2.61836025       0.15547668
O        7.41874699     -15.71936780      -8.56404523       3.18573078      -1.49329684      -1.11771520
H        7.76011921     -16.59404481      -8.22976398       0.76401365       0.79971599      -1.13124949
H        6.70255855     -15.71397020      -8.01100212      -4.18588485       0.95097400       2.10812479
O       13.68023634       8.54409525      17.93683199      -0.33479623       0.61120269      -1.37315432
H       14.04198188       8.80058744      17.02638260      -0.14830484      -1.42374849       2.52785742
H       14.22989271       7.91326309      18.49035135       0.42675071       0.98222320      -1.11628053
O       -0.15136532       1.17568888      -1.25246721       2.18912997      -2.73420903       2.65010310
H        0.81402801       1.41365458      -1.19074398      -1.65726639       0.32978000      -0.75544159
H       -0.07980151       0.32297696      -0.61002491      -0.91703030       2.23054531      -1.61622643
O      -14.19501993      12.66273440      15.80837541      -2.69418209      -0.48204332       2.96150485
H      -14.08447481      12.39100190      14.93772014       0.99917705      -0.70888405      -3.11449579
H      -15.12377885      12.22245896      16.00036090       2.02087697       1.12465718      -0.64804146
O      -16.50710100       5.89053612      12.35020234       4.24193490       2.41879635       4.02696495
H      -17.07337353       5.99335526      11.63549560      -1.61666352       0.80651913      -2.36746684
H      -15.87981433       6.77749005      12.58092360      -2.84351178      -3.06843704      -1.29288962
O       -9.93085705      32.95535749      -9.56657145      -1.72424877      -3.89490279      -1.55722990
H       -9.34108904      32.25430352      -9.17445114      -0.62378053       1.50655345      -0.30745923
H      -10.60434088      32.31637601     -10.11273525       2.37156004       2.59597623       1.69508217
O       34.72598444      11.51680115      21.45279121       2.17337425      -3.66507701      -4.72203189
H       34.76890071      11.55188560      20.38697539      -0.72570421       1.04896390       3.14770930
H       35.17197499      10.55581533      21.38193438      -1.30428989       2.62123989       1.33160529
O       30.39017096     -12.69961805       2.17083838       1.87124389      -1.69857888       4.05934542
H       29.79241239     -12.15017335       2.64960088      -1.10339930       0.85046957      -0.15553273
H       30.32688137     -12.61913020       1.28064589      -1.06444194       0.70290367      -4.01793009
O       17.59329014       9.34982047      -7.42393293       1.10680344      -3.87021506      -1.82681008
H       17.75654131       8.24436927      -7.47171763      -1.13673108       3.47949991       0.23047371
H       17.49332857       9.50084764      -6.49755530      -0.11765780       0.22806458       1.17665003
O       -5.19974290       2.63030179      32.17810201       2.28134517       1.20330209       2.02705276
H       -5.76908995       2.18207810      31.62262469      -3.03716728      -1.14784853      -1.86367971
H       -4.51727363       1.96271298      32.26456956       0.78160000       0.49623478       0.34845496
O        3.72383591       0.83603649      -0.23808953      -1.66984422      -0.93574279       4.31179692
H        3.50995306      -0.10580845      -0.28170855       0.15986709      -0.33859066      -0.97320891
H        4.04865017       1.22581255      -0.97762315       1.31076907       1.28306286      -3.55878759
O       23.25961388       3.22112814      11.66518244      -2.69131788       1.84715780       0.95865646
H       22.89178280       3.69758343      12.53435601       2.37940191      -1.80444149      -1.95226450
H       23.95712236       2.57524619      11.70460614       0.70677575      -0.40684626       1.21764370
O       -1.44264291      31.80788963      14.97783178      -2.43218152       1.74813946      -0.26876669
H       -1.90867870      32.56244341      14.49384630      -0.05665992      -0.89348928       1.18557690
H       -0.63238793      31.96923576      14.54845739       2.57770083      -0.78182111      -0.49849015
O        4.83401265      19.39249266       5.20213478      -4.81137773       0.19156109       1.67680163
H        4.19375586      18.92559961       5.89170031       2.17337939       1.68208268      -2.11604893
H        5.66431287      18.99529224       5.20644228       2.29477661      -1.78172322       0.33534953
O      -10.11733910      10.47273451       9.45824888       0.63578244      -0.46584588      -6.59997094
H      -10.56179503      10.95322742       8.62468894       1.21725804      -1.48330039       2.70911506
H      -10.49601831      10.85548839      10.17052140      -1.61495117       1.85948881       3.68856146
O       17.70605781      17.76738944      26.21935494       2.23417570       0.65033489      -0.37400350
H       18.51691605      17.23879433      26.00022266      -1.20512757      -0.03114378       0.06679881
H       16.93769250      17.24535613      26.08018133      -1.10779074      -1.14948375       0.04762249
O        6.93529069      18.72588813      10.12019665      -0.66588492      -2.15761853       1.38708456
H        7.17553714      19.43673187       9.56392557       0.01087165       0.53087628      -1.46345661
H        6.77701379      17.86063047       9.62658015       0.52186199       1.19861240       0.59308670
O       -0.61552306     -13.79612615      13.26192175       1.58590284       0.24891366       1.67162343
H       -1.32075753     -13.98700037      12.60902291       0.43490471      -1.57931053       0.43927250